# Created Config

3456 atoms
2 atom types

0.0000000   48.4800000  xlo xhi 
0.0000000   48.4800000  ylo yhi 
0.0000000   48.4800000  zlo zhi 

Atoms

1      1   1.0100000e+00  1.0100000e+00  1.0100000e+00 
2      1   3.0300000e+00  3.0300000e+00  1.0100000e+00 
3      1   3.0300000e+00  1.0100000e+00  3.0300000e+00 
4      1   1.0100000e+00  3.0300000e+00  3.0300000e+00 
5      1   1.0100000e+00  1.0100000e+00  5.0500000e+00 
6      1   3.0300000e+00  3.0300000e+00  5.0500000e+00 
7      1   3.0300000e+00  1.0100000e+00  7.0700000e+00 
8      1   1.0100000e+00  3.0300000e+00  7.0700000e+00 
9      1   1.0100000e+00  1.0100000e+00  9.0900000e+00 
10     1   3.0300000e+00  3.0300000e+00  9.0900000e+00 
11     1   3.0300000e+00  1.0100000e+00  1.1110000e+01 
12     1   1.0100000e+00  3.0300000e+00  1.1110000e+01 
13     1   1.0100000e+00  1.0100000e+00  1.3130000e+01 
14     1   3.0300000e+00  3.0300000e+00  1.3130000e+01 
15     1   3.0300000e+00  1.0100000e+00  1.5150000e+01 
16     1   1.0100000e+00  3.0300000e+00  1.5150000e+01 
17     1   1.0100000e+00  1.0100000e+00  1.7170000e+01 
18     1   3.0300000e+00  3.0300000e+00  1.7170000e+01 
19     1   3.0300000e+00  1.0100000e+00  1.9190000e+01 
20     1   1.0100000e+00  3.0300000e+00  1.9190000e+01 
21     1   1.0100000e+00  1.0100000e+00  2.1210000e+01 
22     1   3.0300000e+00  3.0300000e+00  2.1210000e+01 
23     1   3.0300000e+00  1.0100000e+00  2.3230000e+01 
24     1   1.0100000e+00  3.0300000e+00  2.3230000e+01 
25     1   1.0100000e+00  5.0500000e+00  1.0100000e+00 
26     1   3.0300000e+00  7.0700000e+00  1.0100000e+00 
27     1   3.0300000e+00  5.0500000e+00  3.0300000e+00 
28     1   1.0100000e+00  7.0700000e+00  3.0300000e+00 
29     1   1.0100000e+00  5.0500000e+00  5.0500000e+00 
30     1   3.0300000e+00  7.0700000e+00  5.0500000e+00 
31     1   3.0300000e+00  5.0500000e+00  7.0700000e+00 
32     1   1.0100000e+00  7.0700000e+00  7.0700000e+00 
33     1   1.0100000e+00  5.0500000e+00  9.0900000e+00 
34     1   3.0300000e+00  7.0700000e+00  9.0900000e+00 
35     1   3.0300000e+00  5.0500000e+00  1.1110000e+01 
36     1   1.0100000e+00  7.0700000e+00  1.1110000e+01 
37     1   1.0100000e+00  5.0500000e+00  1.3130000e+01 
38     1   3.0300000e+00  7.0700000e+00  1.3130000e+01 
39     1   3.0300000e+00  5.0500000e+00  1.5150000e+01 
40     1   1.0100000e+00  7.0700000e+00  1.5150000e+01 
41     1   1.0100000e+00  5.0500000e+00  1.7170000e+01 
42     1   3.0300000e+00  7.0700000e+00  1.7170000e+01 
43     1   3.0300000e+00  5.0500000e+00  1.9190000e+01 
44     1   1.0100000e+00  7.0700000e+00  1.9190000e+01 
45     1   1.0100000e+00  5.0500000e+00  2.1210000e+01 
46     1   3.0300000e+00  7.0700000e+00  2.1210000e+01 
47     1   3.0300000e+00  5.0500000e+00  2.3230000e+01 
48     1   1.0100000e+00  7.0700000e+00  2.3230000e+01 
49     1   1.0100000e+00  9.0900000e+00  1.0100000e+00 
50     1   3.0300000e+00  1.1110000e+01  1.0100000e+00 
51     1   3.0300000e+00  9.0900000e+00  3.0300000e+00 
52     1   1.0100000e+00  1.1110000e+01  3.0300000e+00 
53     1   1.0100000e+00  9.0900000e+00  5.0500000e+00 
54     1   3.0300000e+00  1.1110000e+01  5.0500000e+00 
55     1   3.0300000e+00  9.0900000e+00  7.0700000e+00 
56     1   1.0100000e+00  1.1110000e+01  7.0700000e+00 
57     1   1.0100000e+00  9.0900000e+00  9.0900000e+00 
58     1   3.0300000e+00  1.1110000e+01  9.0900000e+00 
59     1   3.0300000e+00  9.0900000e+00  1.1110000e+01 
60     1   1.0100000e+00  1.1110000e+01  1.1110000e+01 
61     1   1.0100000e+00  9.0900000e+00  1.3130000e+01 
62     1   3.0300000e+00  1.1110000e+01  1.3130000e+01 
63     1   3.0300000e+00  9.0900000e+00  1.5150000e+01 
64     1   1.0100000e+00  1.1110000e+01  1.5150000e+01 
65     1   1.0100000e+00  9.0900000e+00  1.7170000e+01 
66     1   3.0300000e+00  1.1110000e+01  1.7170000e+01 
67     1   3.0300000e+00  9.0900000e+00  1.9190000e+01 
68     1   1.0100000e+00  1.1110000e+01  1.9190000e+01 
69     1   1.0100000e+00  9.0900000e+00  2.1210000e+01 
70     1   3.0300000e+00  1.1110000e+01  2.1210000e+01 
71     1   3.0300000e+00  9.0900000e+00  2.3230000e+01 
72     1   1.0100000e+00  1.1110000e+01  2.3230000e+01 
73     1   1.0100000e+00  1.3130000e+01  1.0100000e+00 
74     1   3.0300000e+00  1.5150000e+01  1.0100000e+00 
75     1   3.0300000e+00  1.3130000e+01  3.0300000e+00 
76     1   1.0100000e+00  1.5150000e+01  3.0300000e+00 
77     1   1.0100000e+00  1.3130000e+01  5.0500000e+00 
78     1   3.0300000e+00  1.5150000e+01  5.0500000e+00 
79     1   3.0300000e+00  1.3130000e+01  7.0700000e+00 
80     1   1.0100000e+00  1.5150000e+01  7.0700000e+00 
81     1   1.0100000e+00  1.3130000e+01  9.0900000e+00 
82     1   3.0300000e+00  1.5150000e+01  9.0900000e+00 
83     1   3.0300000e+00  1.3130000e+01  1.1110000e+01 
84     1   1.0100000e+00  1.5150000e+01  1.1110000e+01 
85     1   1.0100000e+00  1.3130000e+01  1.3130000e+01 
86     1   3.0300000e+00  1.5150000e+01  1.3130000e+01 
87     1   3.0300000e+00  1.3130000e+01  1.5150000e+01 
88     1   1.0100000e+00  1.5150000e+01  1.5150000e+01 
89     1   1.0100000e+00  1.3130000e+01  1.7170000e+01 
90     1   3.0300000e+00  1.5150000e+01  1.7170000e+01 
91     1   3.0300000e+00  1.3130000e+01  1.9190000e+01 
92     1   1.0100000e+00  1.5150000e+01  1.9190000e+01 
93     1   1.0100000e+00  1.3130000e+01  2.1210000e+01 
94     1   3.0300000e+00  1.5150000e+01  2.1210000e+01 
95     1   3.0300000e+00  1.3130000e+01  2.3230000e+01 
96     1   1.0100000e+00  1.5150000e+01  2.3230000e+01 
97     1   1.0100000e+00  1.7170000e+01  1.0100000e+00 
98     1   3.0300000e+00  1.9190000e+01  1.0100000e+00 
99     1   3.0300000e+00  1.7170000e+01  3.0300000e+00 
100    1   1.0100000e+00  1.9190000e+01  3.0300000e+00 
101    1   1.0100000e+00  1.7170000e+01  5.0500000e+00 
102    1   3.0300000e+00  1.9190000e+01  5.0500000e+00 
103    1   3.0300000e+00  1.7170000e+01  7.0700000e+00 
104    1   1.0100000e+00  1.9190000e+01  7.0700000e+00 
105    1   1.0100000e+00  1.7170000e+01  9.0900000e+00 
106    1   3.0300000e+00  1.9190000e+01  9.0900000e+00 
107    1   3.0300000e+00  1.7170000e+01  1.1110000e+01 
108    1   1.0100000e+00  1.9190000e+01  1.1110000e+01 
109    1   1.0100000e+00  1.7170000e+01  1.3130000e+01 
110    1   3.0300000e+00  1.9190000e+01  1.3130000e+01 
111    1   3.0300000e+00  1.7170000e+01  1.5150000e+01 
112    1   1.0100000e+00  1.9190000e+01  1.5150000e+01 
113    1   1.0100000e+00  1.7170000e+01  1.7170000e+01 
114    1   3.0300000e+00  1.9190000e+01  1.7170000e+01 
115    1   3.0300000e+00  1.7170000e+01  1.9190000e+01 
116    1   1.0100000e+00  1.9190000e+01  1.9190000e+01 
117    1   1.0100000e+00  1.7170000e+01  2.1210000e+01 
118    1   3.0300000e+00  1.9190000e+01  2.1210000e+01 
119    1   3.0300000e+00  1.7170000e+01  2.3230000e+01 
120    1   1.0100000e+00  1.9190000e+01  2.3230000e+01 
121    1   1.0100000e+00  2.1210000e+01  1.0100000e+00 
122    1   3.0300000e+00  2.3230000e+01  1.0100000e+00 
123    1   3.0300000e+00  2.1210000e+01  3.0300000e+00 
124    1   1.0100000e+00  2.3230000e+01  3.0300000e+00 
125    1   1.0100000e+00  2.1210000e+01  5.0500000e+00 
126    1   3.0300000e+00  2.3230000e+01  5.0500000e+00 
127    1   3.0300000e+00  2.1210000e+01  7.0700000e+00 
128    1   1.0100000e+00  2.3230000e+01  7.0700000e+00 
129    1   1.0100000e+00  2.1210000e+01  9.0900000e+00 
130    1   3.0300000e+00  2.3230000e+01  9.0900000e+00 
131    1   3.0300000e+00  2.1210000e+01  1.1110000e+01 
132    1   1.0100000e+00  2.3230000e+01  1.1110000e+01 
133    1   1.0100000e+00  2.1210000e+01  1.3130000e+01 
134    1   3.0300000e+00  2.3230000e+01  1.3130000e+01 
135    1   3.0300000e+00  2.1210000e+01  1.5150000e+01 
136    1   1.0100000e+00  2.3230000e+01  1.5150000e+01 
137    1   1.0100000e+00  2.1210000e+01  1.7170000e+01 
138    1   3.0300000e+00  2.3230000e+01  1.7170000e+01 
139    1   3.0300000e+00  2.1210000e+01  1.9190000e+01 
140    1   1.0100000e+00  2.3230000e+01  1.9190000e+01 
141    1   1.0100000e+00  2.1210000e+01  2.1210000e+01 
142    1   3.0300000e+00  2.3230000e+01  2.1210000e+01 
143    1   3.0300000e+00  2.1210000e+01  2.3230000e+01 
144    1   1.0100000e+00  2.3230000e+01  2.3230000e+01 
145    1   1.0100000e+00  2.5250000e+01  1.0100000e+00 
146    1   3.0300000e+00  2.7270000e+01  1.0100000e+00 
147    1   3.0300000e+00  2.5250000e+01  3.0300000e+00 
148    1   1.0100000e+00  2.7270000e+01  3.0300000e+00 
149    1   1.0100000e+00  2.5250000e+01  5.0500000e+00 
150    1   3.0300000e+00  2.7270000e+01  5.0500000e+00 
151    1   3.0300000e+00  2.5250000e+01  7.0700000e+00 
152    1   1.0100000e+00  2.7270000e+01  7.0700000e+00 
153    1   1.0100000e+00  2.5250000e+01  9.0900000e+00 
154    1   3.0300000e+00  2.7270000e+01  9.0900000e+00 
155    1   3.0300000e+00  2.5250000e+01  1.1110000e+01 
156    1   1.0100000e+00  2.7270000e+01  1.1110000e+01 
157    1   1.0100000e+00  2.5250000e+01  1.3130000e+01 
158    1   3.0300000e+00  2.7270000e+01  1.3130000e+01 
159    1   3.0300000e+00  2.5250000e+01  1.5150000e+01 
160    1   1.0100000e+00  2.7270000e+01  1.5150000e+01 
161    1   1.0100000e+00  2.5250000e+01  1.7170000e+01 
162    1   3.0300000e+00  2.7270000e+01  1.7170000e+01 
163    1   3.0300000e+00  2.5250000e+01  1.9190000e+01 
164    1   1.0100000e+00  2.7270000e+01  1.9190000e+01 
165    1   1.0100000e+00  2.5250000e+01  2.1210000e+01 
166    1   3.0300000e+00  2.7270000e+01  2.1210000e+01 
167    1   3.0300000e+00  2.5250000e+01  2.3230000e+01 
168    1   1.0100000e+00  2.7270000e+01  2.3230000e+01 
169    1   1.0100000e+00  2.9290000e+01  1.0100000e+00 
170    1   3.0300000e+00  3.1310000e+01  1.0100000e+00 
171    1   3.0300000e+00  2.9290000e+01  3.0300000e+00 
172    1   1.0100000e+00  3.1310000e+01  3.0300000e+00 
173    1   1.0100000e+00  2.9290000e+01  5.0500000e+00 
174    1   3.0300000e+00  3.1310000e+01  5.0500000e+00 
175    1   3.0300000e+00  2.9290000e+01  7.0700000e+00 
176    1   1.0100000e+00  3.1310000e+01  7.0700000e+00 
177    1   1.0100000e+00  2.9290000e+01  9.0900000e+00 
178    1   3.0300000e+00  3.1310000e+01  9.0900000e+00 
179    1   3.0300000e+00  2.9290000e+01  1.1110000e+01 
180    1   1.0100000e+00  3.1310000e+01  1.1110000e+01 
181    1   1.0100000e+00  2.9290000e+01  1.3130000e+01 
182    1   3.0300000e+00  3.1310000e+01  1.3130000e+01 
183    1   3.0300000e+00  2.9290000e+01  1.5150000e+01 
184    1   1.0100000e+00  3.1310000e+01  1.5150000e+01 
185    1   1.0100000e+00  2.9290000e+01  1.7170000e+01 
186    1   3.0300000e+00  3.1310000e+01  1.7170000e+01 
187    1   3.0300000e+00  2.9290000e+01  1.9190000e+01 
188    1   1.0100000e+00  3.1310000e+01  1.9190000e+01 
189    1   1.0100000e+00  2.9290000e+01  2.1210000e+01 
190    1   3.0300000e+00  3.1310000e+01  2.1210000e+01 
191    1   3.0300000e+00  2.9290000e+01  2.3230000e+01 
192    1   1.0100000e+00  3.1310000e+01  2.3230000e+01 
193    1   1.0100000e+00  3.3330000e+01  1.0100000e+00 
194    1   3.0300000e+00  3.5350000e+01  1.0100000e+00 
195    1   3.0300000e+00  3.3330000e+01  3.0300000e+00 
196    1   1.0100000e+00  3.5350000e+01  3.0300000e+00 
197    1   1.0100000e+00  3.3330000e+01  5.0500000e+00 
198    1   3.0300000e+00  3.5350000e+01  5.0500000e+00 
199    1   3.0300000e+00  3.3330000e+01  7.0700000e+00 
200    1   1.0100000e+00  3.5350000e+01  7.0700000e+00 
201    1   1.0100000e+00  3.3330000e+01  9.0900000e+00 
202    1   3.0300000e+00  3.5350000e+01  9.0900000e+00 
203    1   3.0300000e+00  3.3330000e+01  1.1110000e+01 
204    1   1.0100000e+00  3.5350000e+01  1.1110000e+01 
205    1   1.0100000e+00  3.3330000e+01  1.3130000e+01 
206    1   3.0300000e+00  3.5350000e+01  1.3130000e+01 
207    1   3.0300000e+00  3.3330000e+01  1.5150000e+01 
208    1   1.0100000e+00  3.5350000e+01  1.5150000e+01 
209    1   1.0100000e+00  3.3330000e+01  1.7170000e+01 
210    1   3.0300000e+00  3.5350000e+01  1.7170000e+01 
211    1   3.0300000e+00  3.3330000e+01  1.9190000e+01 
212    1   1.0100000e+00  3.5350000e+01  1.9190000e+01 
213    1   1.0100000e+00  3.3330000e+01  2.1210000e+01 
214    1   3.0300000e+00  3.5350000e+01  2.1210000e+01 
215    1   3.0300000e+00  3.3330000e+01  2.3230000e+01 
216    1   1.0100000e+00  3.5350000e+01  2.3230000e+01 
217    1   1.0100000e+00  3.7370000e+01  1.0100000e+00 
218    1   3.0300000e+00  3.9390000e+01  1.0100000e+00 
219    1   3.0300000e+00  3.7370000e+01  3.0300000e+00 
220    1   1.0100000e+00  3.9390000e+01  3.0300000e+00 
221    1   1.0100000e+00  3.7370000e+01  5.0500000e+00 
222    1   3.0300000e+00  3.9390000e+01  5.0500000e+00 
223    1   3.0300000e+00  3.7370000e+01  7.0700000e+00 
224    1   1.0100000e+00  3.9390000e+01  7.0700000e+00 
225    1   1.0100000e+00  3.7370000e+01  9.0900000e+00 
226    1   3.0300000e+00  3.9390000e+01  9.0900000e+00 
227    1   3.0300000e+00  3.7370000e+01  1.1110000e+01 
228    1   1.0100000e+00  3.9390000e+01  1.1110000e+01 
229    1   1.0100000e+00  3.7370000e+01  1.3130000e+01 
230    1   3.0300000e+00  3.9390000e+01  1.3130000e+01 
231    1   3.0300000e+00  3.7370000e+01  1.5150000e+01 
232    1   1.0100000e+00  3.9390000e+01  1.5150000e+01 
233    1   1.0100000e+00  3.7370000e+01  1.7170000e+01 
234    1   3.0300000e+00  3.9390000e+01  1.7170000e+01 
235    1   3.0300000e+00  3.7370000e+01  1.9190000e+01 
236    1   1.0100000e+00  3.9390000e+01  1.9190000e+01 
237    1   1.0100000e+00  3.7370000e+01  2.1210000e+01 
238    1   3.0300000e+00  3.9390000e+01  2.1210000e+01 
239    1   3.0300000e+00  3.7370000e+01  2.3230000e+01 
240    1   1.0100000e+00  3.9390000e+01  2.3230000e+01 
241    1   1.0100000e+00  4.1410000e+01  1.0100000e+00 
242    1   3.0300000e+00  4.3430000e+01  1.0100000e+00 
243    1   3.0300000e+00  4.1410000e+01  3.0300000e+00 
244    1   1.0100000e+00  4.3430000e+01  3.0300000e+00 
245    1   1.0100000e+00  4.1410000e+01  5.0500000e+00 
246    1   3.0300000e+00  4.3430000e+01  5.0500000e+00 
247    1   3.0300000e+00  4.1410000e+01  7.0700000e+00 
248    1   1.0100000e+00  4.3430000e+01  7.0700000e+00 
249    1   1.0100000e+00  4.1410000e+01  9.0900000e+00 
250    1   3.0300000e+00  4.3430000e+01  9.0900000e+00 
251    1   3.0300000e+00  4.1410000e+01  1.1110000e+01 
252    1   1.0100000e+00  4.3430000e+01  1.1110000e+01 
253    1   1.0100000e+00  4.1410000e+01  1.3130000e+01 
254    1   3.0300000e+00  4.3430000e+01  1.3130000e+01 
255    1   3.0300000e+00  4.1410000e+01  1.5150000e+01 
256    1   1.0100000e+00  4.3430000e+01  1.5150000e+01 
257    1   1.0100000e+00  4.1410000e+01  1.7170000e+01 
258    1   3.0300000e+00  4.3430000e+01  1.7170000e+01 
259    1   3.0300000e+00  4.1410000e+01  1.9190000e+01 
260    1   1.0100000e+00  4.3430000e+01  1.9190000e+01 
261    1   1.0100000e+00  4.1410000e+01  2.1210000e+01 
262    1   3.0300000e+00  4.3430000e+01  2.1210000e+01 
263    1   3.0300000e+00  4.1410000e+01  2.3230000e+01 
264    1   1.0100000e+00  4.3430000e+01  2.3230000e+01 
265    1   1.0100000e+00  4.5450000e+01  1.0100000e+00 
266    1   3.0300000e+00  4.7470000e+01  1.0100000e+00 
267    1   3.0300000e+00  4.5450000e+01  3.0300000e+00 
268    1   1.0100000e+00  4.7470000e+01  3.0300000e+00 
269    1   1.0100000e+00  4.5450000e+01  5.0500000e+00 
270    1   3.0300000e+00  4.7470000e+01  5.0500000e+00 
271    1   3.0300000e+00  4.5450000e+01  7.0700000e+00 
272    1   1.0100000e+00  4.7470000e+01  7.0700000e+00 
273    1   1.0100000e+00  4.5450000e+01  9.0900000e+00 
274    1   3.0300000e+00  4.7470000e+01  9.0900000e+00 
275    1   3.0300000e+00  4.5450000e+01  1.1110000e+01 
276    1   1.0100000e+00  4.7470000e+01  1.1110000e+01 
277    1   1.0100000e+00  4.5450000e+01  1.3130000e+01 
278    1   3.0300000e+00  4.7470000e+01  1.3130000e+01 
279    1   3.0300000e+00  4.5450000e+01  1.5150000e+01 
280    1   1.0100000e+00  4.7470000e+01  1.5150000e+01 
281    1   1.0100000e+00  4.5450000e+01  1.7170000e+01 
282    1   3.0300000e+00  4.7470000e+01  1.7170000e+01 
283    1   3.0300000e+00  4.5450000e+01  1.9190000e+01 
284    1   1.0100000e+00  4.7470000e+01  1.9190000e+01 
285    1   1.0100000e+00  4.5450000e+01  2.1210000e+01 
286    1   3.0300000e+00  4.7470000e+01  2.1210000e+01 
287    1   3.0300000e+00  4.5450000e+01  2.3230000e+01 
288    1   1.0100000e+00  4.7470000e+01  2.3230000e+01 
289    1   5.0500000e+00  1.0100000e+00  1.0100000e+00 
290    1   7.0700000e+00  3.0300000e+00  1.0100000e+00 
291    1   7.0700000e+00  1.0100000e+00  3.0300000e+00 
292    1   5.0500000e+00  3.0300000e+00  3.0300000e+00 
293    1   5.0500000e+00  1.0100000e+00  5.0500000e+00 
294    1   7.0700000e+00  3.0300000e+00  5.0500000e+00 
295    1   7.0700000e+00  1.0100000e+00  7.0700000e+00 
296    1   5.0500000e+00  3.0300000e+00  7.0700000e+00 
297    1   5.0500000e+00  1.0100000e+00  9.0900000e+00 
298    1   7.0700000e+00  3.0300000e+00  9.0900000e+00 
299    1   7.0700000e+00  1.0100000e+00  1.1110000e+01 
300    1   5.0500000e+00  3.0300000e+00  1.1110000e+01 
301    1   5.0500000e+00  1.0100000e+00  1.3130000e+01 
302    1   7.0700000e+00  3.0300000e+00  1.3130000e+01 
303    1   7.0700000e+00  1.0100000e+00  1.5150000e+01 
304    1   5.0500000e+00  3.0300000e+00  1.5150000e+01 
305    1   5.0500000e+00  1.0100000e+00  1.7170000e+01 
306    1   7.0700000e+00  3.0300000e+00  1.7170000e+01 
307    1   7.0700000e+00  1.0100000e+00  1.9190000e+01 
308    1   5.0500000e+00  3.0300000e+00  1.9190000e+01 
309    1   5.0500000e+00  1.0100000e+00  2.1210000e+01 
310    1   7.0700000e+00  3.0300000e+00  2.1210000e+01 
311    1   7.0700000e+00  1.0100000e+00  2.3230000e+01 
312    1   5.0500000e+00  3.0300000e+00  2.3230000e+01 
313    1   5.0500000e+00  5.0500000e+00  1.0100000e+00 
314    1   7.0700000e+00  7.0700000e+00  1.0100000e+00 
315    1   7.0700000e+00  5.0500000e+00  3.0300000e+00 
316    1   5.0500000e+00  7.0700000e+00  3.0300000e+00 
317    1   5.0500000e+00  5.0500000e+00  5.0500000e+00 
318    1   7.0700000e+00  7.0700000e+00  5.0500000e+00 
319    1   7.0700000e+00  5.0500000e+00  7.0700000e+00 
320    1   5.0500000e+00  7.0700000e+00  7.0700000e+00 
321    1   5.0500000e+00  5.0500000e+00  9.0900000e+00 
322    1   7.0700000e+00  7.0700000e+00  9.0900000e+00 
323    1   7.0700000e+00  5.0500000e+00  1.1110000e+01 
324    1   5.0500000e+00  7.0700000e+00  1.1110000e+01 
325    1   5.0500000e+00  5.0500000e+00  1.3130000e+01 
326    1   7.0700000e+00  7.0700000e+00  1.3130000e+01 
327    1   7.0700000e+00  5.0500000e+00  1.5150000e+01 
328    1   5.0500000e+00  7.0700000e+00  1.5150000e+01 
329    1   5.0500000e+00  5.0500000e+00  1.7170000e+01 
330    1   7.0700000e+00  7.0700000e+00  1.7170000e+01 
331    1   7.0700000e+00  5.0500000e+00  1.9190000e+01 
332    1   5.0500000e+00  7.0700000e+00  1.9190000e+01 
333    1   5.0500000e+00  5.0500000e+00  2.1210000e+01 
334    1   7.0700000e+00  7.0700000e+00  2.1210000e+01 
335    1   7.0700000e+00  5.0500000e+00  2.3230000e+01 
336    1   5.0500000e+00  7.0700000e+00  2.3230000e+01 
337    1   5.0500000e+00  9.0900000e+00  1.0100000e+00 
338    1   7.0700000e+00  1.1110000e+01  1.0100000e+00 
339    1   7.0700000e+00  9.0900000e+00  3.0300000e+00 
340    1   5.0500000e+00  1.1110000e+01  3.0300000e+00 
341    1   5.0500000e+00  9.0900000e+00  5.0500000e+00 
342    1   7.0700000e+00  1.1110000e+01  5.0500000e+00 
343    1   7.0700000e+00  9.0900000e+00  7.0700000e+00 
344    1   5.0500000e+00  1.1110000e+01  7.0700000e+00 
345    1   5.0500000e+00  9.0900000e+00  9.0900000e+00 
346    1   7.0700000e+00  1.1110000e+01  9.0900000e+00 
347    1   7.0700000e+00  9.0900000e+00  1.1110000e+01 
348    1   5.0500000e+00  1.1110000e+01  1.1110000e+01 
349    1   5.0500000e+00  9.0900000e+00  1.3130000e+01 
350    1   7.0700000e+00  1.1110000e+01  1.3130000e+01 
351    1   7.0700000e+00  9.0900000e+00  1.5150000e+01 
352    1   5.0500000e+00  1.1110000e+01  1.5150000e+01 
353    1   5.0500000e+00  9.0900000e+00  1.7170000e+01 
354    1   7.0700000e+00  1.1110000e+01  1.7170000e+01 
355    1   7.0700000e+00  9.0900000e+00  1.9190000e+01 
356    1   5.0500000e+00  1.1110000e+01  1.9190000e+01 
357    1   5.0500000e+00  9.0900000e+00  2.1210000e+01 
358    1   7.0700000e+00  1.1110000e+01  2.1210000e+01 
359    1   7.0700000e+00  9.0900000e+00  2.3230000e+01 
360    1   5.0500000e+00  1.1110000e+01  2.3230000e+01 
361    1   5.0500000e+00  1.3130000e+01  1.0100000e+00 
362    1   7.0700000e+00  1.5150000e+01  1.0100000e+00 
363    1   7.0700000e+00  1.3130000e+01  3.0300000e+00 
364    1   5.0500000e+00  1.5150000e+01  3.0300000e+00 
365    1   5.0500000e+00  1.3130000e+01  5.0500000e+00 
366    1   7.0700000e+00  1.5150000e+01  5.0500000e+00 
367    1   7.0700000e+00  1.3130000e+01  7.0700000e+00 
368    1   5.0500000e+00  1.5150000e+01  7.0700000e+00 
369    1   5.0500000e+00  1.3130000e+01  9.0900000e+00 
370    1   7.0700000e+00  1.5150000e+01  9.0900000e+00 
371    1   7.0700000e+00  1.3130000e+01  1.1110000e+01 
372    1   5.0500000e+00  1.5150000e+01  1.1110000e+01 
373    1   5.0500000e+00  1.3130000e+01  1.3130000e+01 
374    1   7.0700000e+00  1.5150000e+01  1.3130000e+01 
375    1   7.0700000e+00  1.3130000e+01  1.5150000e+01 
376    1   5.0500000e+00  1.5150000e+01  1.5150000e+01 
377    1   5.0500000e+00  1.3130000e+01  1.7170000e+01 
378    1   7.0700000e+00  1.5150000e+01  1.7170000e+01 
379    1   7.0700000e+00  1.3130000e+01  1.9190000e+01 
380    1   5.0500000e+00  1.5150000e+01  1.9190000e+01 
381    1   5.0500000e+00  1.3130000e+01  2.1210000e+01 
382    1   7.0700000e+00  1.5150000e+01  2.1210000e+01 
383    1   7.0700000e+00  1.3130000e+01  2.3230000e+01 
384    1   5.0500000e+00  1.5150000e+01  2.3230000e+01 
385    1   5.0500000e+00  1.7170000e+01  1.0100000e+00 
386    1   7.0700000e+00  1.9190000e+01  1.0100000e+00 
387    1   7.0700000e+00  1.7170000e+01  3.0300000e+00 
388    1   5.0500000e+00  1.9190000e+01  3.0300000e+00 
389    1   5.0500000e+00  1.7170000e+01  5.0500000e+00 
390    1   7.0700000e+00  1.9190000e+01  5.0500000e+00 
391    1   7.0700000e+00  1.7170000e+01  7.0700000e+00 
392    1   5.0500000e+00  1.9190000e+01  7.0700000e+00 
393    1   5.0500000e+00  1.7170000e+01  9.0900000e+00 
394    1   7.0700000e+00  1.9190000e+01  9.0900000e+00 
395    1   7.0700000e+00  1.7170000e+01  1.1110000e+01 
396    1   5.0500000e+00  1.9190000e+01  1.1110000e+01 
397    1   5.0500000e+00  1.7170000e+01  1.3130000e+01 
398    1   7.0700000e+00  1.9190000e+01  1.3130000e+01 
399    1   7.0700000e+00  1.7170000e+01  1.5150000e+01 
400    1   5.0500000e+00  1.9190000e+01  1.5150000e+01 
401    1   5.0500000e+00  1.7170000e+01  1.7170000e+01 
402    1   7.0700000e+00  1.9190000e+01  1.7170000e+01 
403    1   7.0700000e+00  1.7170000e+01  1.9190000e+01 
404    1   5.0500000e+00  1.9190000e+01  1.9190000e+01 
405    1   5.0500000e+00  1.7170000e+01  2.1210000e+01 
406    1   7.0700000e+00  1.9190000e+01  2.1210000e+01 
407    1   7.0700000e+00  1.7170000e+01  2.3230000e+01 
408    1   5.0500000e+00  1.9190000e+01  2.3230000e+01 
409    1   5.0500000e+00  2.1210000e+01  1.0100000e+00 
410    1   7.0700000e+00  2.3230000e+01  1.0100000e+00 
411    1   7.0700000e+00  2.1210000e+01  3.0300000e+00 
412    1   5.0500000e+00  2.3230000e+01  3.0300000e+00 
413    1   5.0500000e+00  2.1210000e+01  5.0500000e+00 
414    1   7.0700000e+00  2.3230000e+01  5.0500000e+00 
415    1   7.0700000e+00  2.1210000e+01  7.0700000e+00 
416    1   5.0500000e+00  2.3230000e+01  7.0700000e+00 
417    1   5.0500000e+00  2.1210000e+01  9.0900000e+00 
418    1   7.0700000e+00  2.3230000e+01  9.0900000e+00 
419    1   7.0700000e+00  2.1210000e+01  1.1110000e+01 
420    1   5.0500000e+00  2.3230000e+01  1.1110000e+01 
421    1   5.0500000e+00  2.1210000e+01  1.3130000e+01 
422    1   7.0700000e+00  2.3230000e+01  1.3130000e+01 
423    1   7.0700000e+00  2.1210000e+01  1.5150000e+01 
424    1   5.0500000e+00  2.3230000e+01  1.5150000e+01 
425    1   5.0500000e+00  2.1210000e+01  1.7170000e+01 
426    1   7.0700000e+00  2.3230000e+01  1.7170000e+01 
427    1   7.0700000e+00  2.1210000e+01  1.9190000e+01 
428    1   5.0500000e+00  2.3230000e+01  1.9190000e+01 
429    1   5.0500000e+00  2.1210000e+01  2.1210000e+01 
430    1   7.0700000e+00  2.3230000e+01  2.1210000e+01 
431    1   7.0700000e+00  2.1210000e+01  2.3230000e+01 
432    1   5.0500000e+00  2.3230000e+01  2.3230000e+01 
433    1   5.0500000e+00  2.5250000e+01  1.0100000e+00 
434    1   7.0700000e+00  2.7270000e+01  1.0100000e+00 
435    1   7.0700000e+00  2.5250000e+01  3.0300000e+00 
436    1   5.0500000e+00  2.7270000e+01  3.0300000e+00 
437    1   5.0500000e+00  2.5250000e+01  5.0500000e+00 
438    1   7.0700000e+00  2.7270000e+01  5.0500000e+00 
439    1   7.0700000e+00  2.5250000e+01  7.0700000e+00 
440    1   5.0500000e+00  2.7270000e+01  7.0700000e+00 
441    1   5.0500000e+00  2.5250000e+01  9.0900000e+00 
442    1   7.0700000e+00  2.7270000e+01  9.0900000e+00 
443    1   7.0700000e+00  2.5250000e+01  1.1110000e+01 
444    1   5.0500000e+00  2.7270000e+01  1.1110000e+01 
445    1   5.0500000e+00  2.5250000e+01  1.3130000e+01 
446    1   7.0700000e+00  2.7270000e+01  1.3130000e+01 
447    1   7.0700000e+00  2.5250000e+01  1.5150000e+01 
448    1   5.0500000e+00  2.7270000e+01  1.5150000e+01 
449    1   5.0500000e+00  2.5250000e+01  1.7170000e+01 
450    1   7.0700000e+00  2.7270000e+01  1.7170000e+01 
451    1   7.0700000e+00  2.5250000e+01  1.9190000e+01 
452    1   5.0500000e+00  2.7270000e+01  1.9190000e+01 
453    1   5.0500000e+00  2.5250000e+01  2.1210000e+01 
454    1   7.0700000e+00  2.7270000e+01  2.1210000e+01 
455    1   7.0700000e+00  2.5250000e+01  2.3230000e+01 
456    1   5.0500000e+00  2.7270000e+01  2.3230000e+01 
457    1   5.0500000e+00  2.9290000e+01  1.0100000e+00 
458    1   7.0700000e+00  3.1310000e+01  1.0100000e+00 
459    1   7.0700000e+00  2.9290000e+01  3.0300000e+00 
460    1   5.0500000e+00  3.1310000e+01  3.0300000e+00 
461    1   5.0500000e+00  2.9290000e+01  5.0500000e+00 
462    1   7.0700000e+00  3.1310000e+01  5.0500000e+00 
463    1   7.0700000e+00  2.9290000e+01  7.0700000e+00 
464    1   5.0500000e+00  3.1310000e+01  7.0700000e+00 
465    1   5.0500000e+00  2.9290000e+01  9.0900000e+00 
466    1   7.0700000e+00  3.1310000e+01  9.0900000e+00 
467    1   7.0700000e+00  2.9290000e+01  1.1110000e+01 
468    1   5.0500000e+00  3.1310000e+01  1.1110000e+01 
469    1   5.0500000e+00  2.9290000e+01  1.3130000e+01 
470    1   7.0700000e+00  3.1310000e+01  1.3130000e+01 
471    1   7.0700000e+00  2.9290000e+01  1.5150000e+01 
472    1   5.0500000e+00  3.1310000e+01  1.5150000e+01 
473    1   5.0500000e+00  2.9290000e+01  1.7170000e+01 
474    1   7.0700000e+00  3.1310000e+01  1.7170000e+01 
475    1   7.0700000e+00  2.9290000e+01  1.9190000e+01 
476    1   5.0500000e+00  3.1310000e+01  1.9190000e+01 
477    1   5.0500000e+00  2.9290000e+01  2.1210000e+01 
478    1   7.0700000e+00  3.1310000e+01  2.1210000e+01 
479    1   7.0700000e+00  2.9290000e+01  2.3230000e+01 
480    1   5.0500000e+00  3.1310000e+01  2.3230000e+01 
481    1   5.0500000e+00  3.3330000e+01  1.0100000e+00 
482    1   7.0700000e+00  3.5350000e+01  1.0100000e+00 
483    1   7.0700000e+00  3.3330000e+01  3.0300000e+00 
484    1   5.0500000e+00  3.5350000e+01  3.0300000e+00 
485    1   5.0500000e+00  3.3330000e+01  5.0500000e+00 
486    1   7.0700000e+00  3.5350000e+01  5.0500000e+00 
487    1   7.0700000e+00  3.3330000e+01  7.0700000e+00 
488    1   5.0500000e+00  3.5350000e+01  7.0700000e+00 
489    1   5.0500000e+00  3.3330000e+01  9.0900000e+00 
490    1   7.0700000e+00  3.5350000e+01  9.0900000e+00 
491    1   7.0700000e+00  3.3330000e+01  1.1110000e+01 
492    1   5.0500000e+00  3.5350000e+01  1.1110000e+01 
493    1   5.0500000e+00  3.3330000e+01  1.3130000e+01 
494    1   7.0700000e+00  3.5350000e+01  1.3130000e+01 
495    1   7.0700000e+00  3.3330000e+01  1.5150000e+01 
496    1   5.0500000e+00  3.5350000e+01  1.5150000e+01 
497    1   5.0500000e+00  3.3330000e+01  1.7170000e+01 
498    1   7.0700000e+00  3.5350000e+01  1.7170000e+01 
499    1   7.0700000e+00  3.3330000e+01  1.9190000e+01 
500    1   5.0500000e+00  3.5350000e+01  1.9190000e+01 
501    1   5.0500000e+00  3.3330000e+01  2.1210000e+01 
502    1   7.0700000e+00  3.5350000e+01  2.1210000e+01 
503    1   7.0700000e+00  3.3330000e+01  2.3230000e+01 
504    1   5.0500000e+00  3.5350000e+01  2.3230000e+01 
505    1   5.0500000e+00  3.7370000e+01  1.0100000e+00 
506    1   7.0700000e+00  3.9390000e+01  1.0100000e+00 
507    1   7.0700000e+00  3.7370000e+01  3.0300000e+00 
508    1   5.0500000e+00  3.9390000e+01  3.0300000e+00 
509    1   5.0500000e+00  3.7370000e+01  5.0500000e+00 
510    1   7.0700000e+00  3.9390000e+01  5.0500000e+00 
511    1   7.0700000e+00  3.7370000e+01  7.0700000e+00 
512    1   5.0500000e+00  3.9390000e+01  7.0700000e+00 
513    1   5.0500000e+00  3.7370000e+01  9.0900000e+00 
514    1   7.0700000e+00  3.9390000e+01  9.0900000e+00 
515    1   7.0700000e+00  3.7370000e+01  1.1110000e+01 
516    1   5.0500000e+00  3.9390000e+01  1.1110000e+01 
517    1   5.0500000e+00  3.7370000e+01  1.3130000e+01 
518    1   7.0700000e+00  3.9390000e+01  1.3130000e+01 
519    1   7.0700000e+00  3.7370000e+01  1.5150000e+01 
520    1   5.0500000e+00  3.9390000e+01  1.5150000e+01 
521    1   5.0500000e+00  3.7370000e+01  1.7170000e+01 
522    1   7.0700000e+00  3.9390000e+01  1.7170000e+01 
523    1   7.0700000e+00  3.7370000e+01  1.9190000e+01 
524    1   5.0500000e+00  3.9390000e+01  1.9190000e+01 
525    1   5.0500000e+00  3.7370000e+01  2.1210000e+01 
526    1   7.0700000e+00  3.9390000e+01  2.1210000e+01 
527    1   7.0700000e+00  3.7370000e+01  2.3230000e+01 
528    1   5.0500000e+00  3.9390000e+01  2.3230000e+01 
529    1   5.0500000e+00  4.1410000e+01  1.0100000e+00 
530    1   7.0700000e+00  4.3430000e+01  1.0100000e+00 
531    1   7.0700000e+00  4.1410000e+01  3.0300000e+00 
532    1   5.0500000e+00  4.3430000e+01  3.0300000e+00 
533    1   5.0500000e+00  4.1410000e+01  5.0500000e+00 