# Created Config

4000 atoms
2 atom types

0.0000000   34.7243800  xlo xhi 
0.0000000   34.7243800  ylo yhi 
0.0000000   34.7243800  zlo zhi 

Atoms

1      1   2.0868109e+01  2.0868109e+01  2.0868109e+01 
2      2   2.2604329e+01  2.2604329e+01  2.0868109e+01 
3      1   2.2604329e+01  2.0868109e+01  2.2604329e+01 
4      2   2.0868109e+01  2.2604329e+01  2.2604329e+01 
5      1   2.0868109e+01  2.0868109e+01  2.4340547e+01 
6      2   2.2604329e+01  2.2604329e+01  2.4340547e+01 
7      1   2.2604329e+01  2.0868109e+01  2.6076766e+01 
8      2   2.0868109e+01  2.2604329e+01  2.6076766e+01 
9      1   2.0868109e+01  2.0868109e+01  2.7812985e+01 
10     2   2.2604329e+01  2.2604329e+01  2.7812985e+01 
11     1   2.2604329e+01  2.0868109e+01  2.9549205e+01 
12     2   2.0868109e+01  2.2604329e+01  2.9549205e+01 
13     1   2.0868109e+01  2.0868109e+01  3.1285424e+01 
14     2   2.2604329e+01  2.2604329e+01  3.1285424e+01 
15     1   2.2604329e+01  2.0868109e+01  3.3021642e+01 
16     2   2.0868109e+01  2.2604329e+01  3.3021642e+01 
17     1   2.0868109e+01  2.0868109e+01  3.4757861e+01 
18     2   2.2604329e+01  2.2604329e+01  3.4757861e+01 
19     1   2.2604329e+01  2.0868109e+01  3.6494080e+01 
20     2   2.0868109e+01  2.2604329e+01  3.6494080e+01 
21     1   2.0868109e+01  2.0868109e+01  3.8230300e+01 
22     2   2.2604329e+01  2.2604329e+01  3.8230300e+01 
23     1   2.2604329e+01  2.0868109e+01  3.9966518e+01 
24     2   2.0868109e+01  2.2604329e+01  3.9966518e+01 
25     1   2.0868109e+01  2.0868109e+01  4.1702737e+01 
26     2   2.2604329e+01  2.2604329e+01  4.1702737e+01 
27     1   2.2604329e+01  2.0868109e+01  4.3438957e+01 
28     2   2.0868109e+01  2.2604329e+01  4.3438957e+01 
29     1   2.0868109e+01  2.0868109e+01  4.5175175e+01 
30     2   2.2604329e+01  2.2604329e+01  4.5175175e+01 
31     1   2.2604329e+01  2.0868109e+01  4.6911395e+01 
32     2   2.0868109e+01  2.2604329e+01  4.6911395e+01 
33     1   2.0868109e+01  2.0868109e+01  4.8647613e+01 
34     2   2.2604329e+01  2.2604329e+01  4.8647613e+01 
35     1   2.2604329e+01  2.0868109e+01  5.0383832e+01 
36     2   2.0868109e+01  2.2604329e+01  5.0383832e+01 
37     1   2.0868109e+01  2.0868109e+01  5.2120051e+01 
38     2   2.2604329e+01  2.2604329e+01  5.2120051e+01 
39     1   2.2604329e+01  2.0868109e+01  5.3856270e+01 
40     2   2.0868109e+01  2.2604329e+01  5.3856270e+01 
41     1   2.0868109e+01  2.4340547e+01  2.0868109e+01 
42     2   2.2604329e+01  2.6076766e+01  2.0868109e+01 
43     1   2.2604329e+01  2.4340547e+01  2.2604329e+01 
44     2   2.0868109e+01  2.6076766e+01  2.2604329e+01 
45     1   2.0868109e+01  2.4340547e+01  2.4340547e+01 
46     2   2.2604329e+01  2.6076766e+01  2.4340547e+01 
47     1   2.2604329e+01  2.4340547e+01  2.6076766e+01 
48     2   2.0868109e+01  2.6076766e+01  2.6076766e+01 
49     1   2.0868109e+01  2.4340547e+01  2.7812985e+01 
50     2   2.2604329e+01  2.6076766e+01  2.7812985e+01 
51     1   2.2604329e+01  2.4340547e+01  2.9549205e+01 
52     2   2.0868109e+01  2.6076766e+01  2.9549205e+01 
53     1   2.0868109e+01  2.4340547e+01  3.1285424e+01 
54     2   2.2604329e+01  2.6076766e+01  3.1285424e+01 
55     1   2.2604329e+01  2.4340547e+01  3.3021642e+01 
56     2   2.0868109e+01  2.6076766e+01  3.3021642e+01 
57     1   2.0868109e+01  2.4340547e+01  3.4757861e+01 
58     2   2.2604329e+01  2.6076766e+01  3.4757861e+01 
59     1   2.2604329e+01  2.4340547e+01  3.6494080e+01 
60     2   2.0868109e+01  2.6076766e+01  3.6494080e+01 
61     1   2.0868109e+01  2.4340547e+01  3.8230300e+01 
62     2   2.2604329e+01  2.6076766e+01  3.8230300e+01 
63     1   2.2604329e+01  2.4340547e+01  3.9966518e+01 
64     2   2.0868109e+01  2.6076766e+01  3.9966518e+01 
65     1   2.0868109e+01  2.4340547e+01  4.1702737e+01 
66     2   2.2604329e+01  2.6076766e+01  4.1702737e+01 
67     1   2.2604329e+01  2.4340547e+01  4.3438957e+01 
68     2   2.0868109e+01  2.6076766e+01  4.3438957e+01 
69     1   2.0868109e+01  2.4340547e+01  4.5175175e+01 
70     2   2.2604329e+01  2.6076766e+01  4.5175175e+01 
71     1   2.2604329e+01  2.4340547e+01  4.6911395e+01 
72     2   2.0868109e+01  2.6076766e+01  4.6911395e+01 
73     1   2.0868109e+01  2.4340547e+01  4.8647613e+01 
74     2   2.2604329e+01  2.6076766e+01  4.8647613e+01 
75     1   2.2604329e+01  2.4340547e+01  5.0383832e+01 
76     2   2.0868109e+01  2.6076766e+01  5.0383832e+01 
77     1   2.0868109e+01  2.4340547e+01  5.2120051e+01 
78     2   2.2604329e+01  2.6076766e+01  5.2120051e+01 
79     1   2.2604329e+01  2.4340547e+01  5.3856270e+01 
80     2   2.0868109e+01  2.6076766e+01  5.3856270e+01 
81     1   2.0868109e+01  2.7812985e+01  2.0868109e+01 
82     2   2.2604329e+01  2.9549205e+01  2.0868109e+01 
83     1   2.2604329e+01  2.7812985e+01  2.2604329e+01 
84     2   2.0868109e+01  2.9549205e+01  2.2604329e+01 
85     1   2.0868109e+01  2.7812985e+01  2.4340547e+01 
86     2   2.2604329e+01  2.9549205e+01  2.4340547e+01 
87     1   2.2604329e+01  2.7812985e+01  2.6076766e+01 
88     2   2.0868109e+01  2.9549205e+01  2.6076766e+01 
89     1   2.0868109e+01  2.7812985e+01  2.7812985e+01 
90     2   2.2604329e+01  2.9549205e+01  2.7812985e+01 
91     1   2.2604329e+01  2.7812985e+01  2.9549205e+01 
92     2   2.0868109e+01  2.9549205e+01  2.9549205e+01 
93     1   2.0868109e+01  2.7812985e+01  3.1285424e+01 
94     2   2.2604329e+01  2.9549205e+01  3.1285424e+01 
95     1   2.2604329e+01  2.7812985e+01  3.3021642e+01 
96     2   2.0868109e+01  2.9549205e+01  3.3021642e+01 
97     1   2.0868109e+01  2.7812985e+01  3.4757861e+01 
98     2   2.2604329e+01  2.9549205e+01  3.4757861e+01 
99     1   2.2604329e+01  2.7812985e+01  3.6494080e+01 
100    2   2.0868109e+01  2.9549205e+01  3.6494080e+01 
101    1   2.0868109e+01  2.7812985e+01  3.8230300e+01 
102    2   2.2604329e+01  2.9549205e+01  3.8230300e+01 
103    1   2.2604329e+01  2.7812985e+01  3.9966518e+01 
104    2   2.0868109e+01  2.9549205e+01  3.9966518e+01 
105    1   2.0868109e+01  2.7812985e+01  4.1702737e+01 
106    2   2.2604329e+01  2.9549205e+01  4.1702737e+01 
107    1   2.2604329e+01  2.7812985e+01  4.3438957e+01 
108    2   2.0868109e+01  2.9549205e+01  4.3438957e+01 
109    1   2.0868109e+01  2.7812985e+01  4.5175175e+01 
110    2   2.2604329e+01  2.9549205e+01  4.5175175e+01 
111    1   2.2604329e+01  2.7812985e+01  4.6911395e+01 
112    2   2.0868109e+01  2.9549205e+01  4.6911395e+01 
113    1   2.0868109e+01  2.7812985e+01  4.8647613e+01 
114    2   2.2604329e+01  2.9549205e+01  4.8647613e+01 
115    1   2.2604329e+01  2.7812985e+01  5.0383832e+01 
116    2   2.0868109e+01  2.9549205e+01  5.0383832e+01 
117    1   2.0868109e+01  2.7812985e+01  5.2120051e+01 
118    2   2.2604329e+01  2.9549205e+01  5.2120051e+01 
119    1   2.2604329e+01  2.7812985e+01  5.3856270e+01 
120    2   2.0868109e+01  2.9549205e+01  5.3856270e+01 
121    1   2.0868109e+01  3.1285424e+01  2.0868109e+01 
122    2   2.2604329e+01  3.3021642e+01  2.0868109e+01 
123    1   2.2604329e+01  3.1285424e+01  2.2604329e+01 
124    2   2.0868109e+01  3.3021642e+01  2.2604329e+01 
125    1   2.0868109e+01  3.1285424e+01  2.4340547e+01 
126    2   2.2604329e+01  3.3021642e+01  2.4340547e+01 
127    1   2.2604329e+01  3.1285424e+01  2.6076766e+01 
128    2   2.0868109e+01  3.3021642e+01  2.6076766e+01 
129    1   2.0868109e+01  3.1285424e+01  2.7812985e+01 
130    2   2.2604329e+01  3.3021642e+01  2.7812985e+01 
131    1   2.2604329e+01  3.1285424e+01  2.9549205e+01 
132    2   2.0868109e+01  3.3021642e+01  2.9549205e+01 
133    1   2.0868109e+01  3.1285424e+01  3.1285424e+01 
134    2   2.2604329e+01  3.3021642e+01  3.1285424e+01 
135    1   2.2604329e+01  3.1285424e+01  3.3021642e+01 
136    2   2.0868109e+01  3.3021642e+01  3.3021642e+01 
137    1   2.0868109e+01  3.1285424e+01  3.4757861e+01 
138    2   2.2604329e+01  3.3021642e+01  3.4757861e+01 
139    1   2.2604329e+01  3.1285424e+01  3.6494080e+01 
140    2   2.0868109e+01  3.3021642e+01  3.6494080e+01 
141    1   2.0868109e+01  3.1285424e+01  3.8230300e+01 
142    2   2.2604329e+01  3.3021642e+01  3.8230300e+01 
143    1   2.2604329e+01  3.1285424e+01  3.9966518e+01 
144    2   2.0868109e+01  3.3021642e+01  3.9966518e+01 
145    1   2.0868109e+01  3.1285424e+01  4.1702737e+01 
146    2   2.2604329e+01  3.3021642e+01  4.1702737e+01 
147    1   2.2604329e+01  3.1285424e+01  4.3438957e+01 
148    2   2.0868109e+01  3.3021642e+01  4.3438957e+01 
149    1   2.0868109e+01  3.1285424e+01  4.5175175e+01 
150    2   2.2604329e+01  3.3021642e+01  4.5175175e+01 
151    1   2.2604329e+01  3.1285424e+01  4.6911395e+01 
152    2   2.0868109e+01  3.3021642e+01  4.6911395e+01 
153    1   2.0868109e+01  3.1285424e+01  4.8647613e+01 
154    2   2.2604329e+01  3.3021642e+01  4.8647613e+01 
155    1   2.2604329e+01  3.1285424e+01  5.0383832e+01 
156    2   2.0868109e+01  3.3021642e+01  5.0383832e+01 
157    1   2.0868109e+01  3.1285424e+01  5.2120051e+01 
158    2   2.2604329e+01  3.3021642e+01  5.2120051e+01 
159    1   2.2604329e+01  3.1285424e+01  5.3856270e+01 
160    2   2.0868109e+01  3.3021642e+01  5.3856270e+01 
161    1   2.0868109e+01  3.4757861e+01  2.0868109e+01 
162    2   2.2604329e+01  3.6494080e+01  2.0868109e+01 
163    1   2.2604329e+01  3.4757861e+01  2.2604329e+01 
164    2   2.0868109e+01  3.6494080e+01  2.2604329e+01 
165    1   2.0868109e+01  3.4757861e+01  2.4340547e+01 
166    2   2.2604329e+01  3.6494080e+01  2.4340547e+01 
167    1   2.2604329e+01  3.4757861e+01  2.6076766e+01 
168    2   2.0868109e+01  3.6494080e+01  2.6076766e+01 
169    1   2.0868109e+01  3.4757861e+01  2.7812985e+01 
170    2   2.2604329e+01  3.6494080e+01  2.7812985e+01 
171    1   2.2604329e+01  3.4757861e+01  2.9549205e+01 
172    2   2.0868109e+01  3.6494080e+01  2.9549205e+01 
173    1   2.0868109e+01  3.4757861e+01  3.1285424e+01 
174    2   2.2604329e+01  3.6494080e+01  3.1285424e+01 
175    1   2.2604329e+01  3.4757861e+01  3.3021642e+01 
176    2   2.0868109e+01  3.6494080e+01  3.3021642e+01 
177    1   2.0868109e+01  3.4757861e+01  3.4757861e+01 
178    2   2.2604329e+01  3.6494080e+01  3.4757861e+01 
179    1   2.2604329e+01  3.4757861e+01  3.6494080e+01 
180    2   2.0868109e+01  3.6494080e+01  3.6494080e+01 
181    1   2.0868109e+01  3.4757861e+01  3.8230300e+01 
182    2   2.2604329e+01  3.6494080e+01  3.8230300e+01 
183    1   2.2604329e+01  3.4757861e+01  3.9966518e+01 
184    2   2.0868109e+01  3.6494080e+01  3.9966518e+01 
185    1   2.0868109e+01  3.4757861e+01  4.1702737e+01 
186    2   2.2604329e+01  3.6494080e+01  4.1702737e+01 
187    1   2.2604329e+01  3.4757861e+01  4.3438957e+01 
188    2   2.0868109e+01  3.6494080e+01  4.3438957e+01 
189    1   2.0868109e+01  3.4757861e+01  4.5175175e+01 
190    2   2.2604329e+01  3.6494080e+01  4.5175175e+01 
191    1   2.2604329e+01  3.4757861e+01  4.6911395e+01 
192    2   2.0868109e+01  3.6494080e+01  4.6911395e+01 
193    1   2.0868109e+01  3.4757861e+01  4.8647613e+01 
194    2   2.2604329e+01  3.6494080e+01  4.8647613e+01 
195    1   2.2604329e+01  3.4757861e+01  5.0383832e+01 
196    2   2.0868109e+01  3.6494080e+01  5.0383832e+01 
197    1   2.0868109e+01  3.4757861e+01  5.2120051e+01 
198    2   2.2604329e+01  3.6494080e+01  5.2120051e+01 
199    1   2.2604329e+01  3.4757861e+01  5.3856270e+01 
200    2   2.0868109e+01  3.6494080e+01  5.3856270e+01 
201    1   2.0868109e+01  3.8230300e+01  2.0868109e+01 
202    2   2.2604329e+01  3.9966518e+01  2.0868109e+01 
203    1   2.2604329e+01  3.8230300e+01  2.2604329e+01 
204    2   2.0868109e+01  3.9966518e+01  2.2604329e+01 
205    1   2.0868109e+01  3.8230300e+01  2.4340547e+01 
206    2   2.2604329e+01  3.9966518e+01  2.4340547e+01 
207    1   2.2604329e+01  3.8230300e+01  2.6076766e+01 
208    2   2.0868109e+01  3.9966518e+01  2.6076766e+01 
209    1   2.0868109e+01  3.8230300e+01  2.7812985e+01 
210    2   2.2604329e+01  3.9966518e+01  2.7812985e+01 
211    1   2.2604329e+01  3.8230300e+01  2.9549205e+01 
212    2   2.0868109e+01  3.9966518e+01  2.9549205e+01 
213    1   2.0868109e+01  3.8230300e+01  3.1285424e+01 
214    2   2.2604329e+01  3.9966518e+01  3.1285424e+01 
215    1   2.2604329e+01  3.8230300e+01  3.3021642e+01 
216    2   2.0868109e+01  3.9966518e+01  3.3021642e+01 
217    1   2.0868109e+01  3.8230300e+01  3.4757861e+01 
218    2   2.2604329e+01  3.9966518e+01  3.4757861e+01 
219    1   2.2604329e+01  3.8230300e+01  3.6494080e+01 
220    2   2.0868109e+01  3.9966518e+01  3.6494080e+01 
221    1   2.0868109e+01  3.8230300e+01  3.8230300e+01 
222    2   2.2604329e+01  3.9966518e+01  3.8230300e+01 
223    1   2.2604329e+01  3.8230300e+01  3.9966518e+01 
224    2   2.0868109e+01  3.9966518e+01  3.9966518e+01 
225    1   2.0868109e+01  3.8230300e+01  4.1702737e+01 
226    2   2.2604329e+01  3.9966518e+01  4.1702737e+01 
227    1   2.2604329e+01  3.8230300e+01  4.3438957e+01 
228    2   2.0868109e+01  3.9966518e+01  4.3438957e+01 
229    1   2.0868109e+01  3.8230300e+01  4.5175175e+01 
230    2   2.2604329e+01  3.9966518e+01  4.5175175e+01 
231    1   2.2604329e+01  3.8230300e+01  4.6911395e+01 
232    2   2.0868109e+01  3.9966518e+01  4.6911395e+01 
233    1   2.0868109e+01  3.8230300e+01  4.8647613e+01 
234    2   2.2604329e+01  3.9966518e+01  4.8647613e+01 
235    1   2.2604329e+01  3.8230300e+01  5.0383832e+01 
236    2   2.0868109e+01  3.9966518e+01  5.0383832e+01 
237    1   2.0868109e+01  3.8230300e+01  5.2120051e+01 
238    2   2.2604329e+01  3.9966518e+01  5.2120051e+01 
239    1   2.2604329e+01  3.8230300e+01  5.3856270e+01 
240    2   2.0868109e+01  3.9966518e+01  5.3856270e+01 
241    1   2.0868109e+01  4.1702737e+01  2.0868109e+01 
242    2   2.2604329e+01  4.3438957e+01  2.0868109e+01 
243    1   2.2604329e+01  4.1702737e+01  2.2604329e+01 
244    2   2.0868109e+01  4.3438957e+01  2.2604329e+01 
245    1   2.0868109e+01  4.1702737e+01  2.4340547e+01 
246    2   2.2604329e+01  4.3438957e+01  2.4340547e+01 
247    1   2.2604329e+01  4.1702737e+01  2.6076766e+01 
248    2   2.0868109e+01  4.3438957e+01  2.6076766e+01 
249    1   2.0868109e+01  4.1702737e+01  2.7812985e+01 
250    2   2.2604329e+01  4.3438957e+01  2.7812985e+01 
251    1   2.2604329e+01  4.1702737e+01  2.9549205e+01 
252    2   2.0868109e+01  4.3438957e+01  2.9549205e+01 
253    1   2.0868109e+01  4.1702737e+01  3.1285424e+01 
254    2   2.2604329e+01  4.3438957e+01  3.1285424e+01 
255    1   2.2604329e+01  4.1702737e+01  3.3021642e+01 
256    2   2.0868109e+01  4.3438957e+01  3.3021642e+01 
257    1   2.0868109e+01  4.1702737e+01  3.4757861e+01 
258    2   2.2604329e+01  4.3438957e+01  3.4757861e+01 
259    1   2.2604329e+01  4.1702737e+01  3.6494080e+01 
260    2   2.0868109e+01  4.3438957e+01  3.6494080e+01 
261    1   2.0868109e+01  4.1702737e+01  3.8230300e+01 
262    2   2.2604329e+01  4.3438957e+01  3.8230300e+01 
263    1   2.2604329e+01  4.1702737e+01  3.9966518e+01 
264    2   2.0868109e+01  4.3438957e+01  3.9966518e+01 
265    1   2.0868109e+01  4.1702737e+01  4.1702737e+01 
266    2   2.2604329e+01  4.3438957e+01  4.1702737e+01 
267    1   2.2604329e+01  4.1702737e+01  4.3438957e+01 
268    2   2.0868109e+01  4.3438957e+01  4.3438957e+01 
269    1   2.0868109e+01  4.1702737e+01  4.5175175e+01 
270    2   2.2604329e+01  4.3438957e+01  4.5175175e+01 
271    1   2.2604329e+01  4.1702737e+01  4.6911395e+01 
272    2   2.0868109e+01  4.3438957e+01  4.6911395e+01 
273    1   2.0868109e+01  4.1702737e+01  4.8647613e+01 
274    2   2.2604329e+01  4.3438957e+01  4.8647613e+01 
275    1   2.2604329e+01  4.1702737e+01  5.0383832e+01 
276    2   2.0868109e+01  4.3438957e+01  5.0383832e+01 
277    1   2.0868109e+01  4.1702737e+01  5.2120051e+01 
278    2   2.2604329e+01  4.3438957e+01  5.2120051e+01 
279    1   2.2604329e+01  4.1702737e+01  5.3856270e+01 
280    2   2.0868109e+01  4.3438957e+01  5.3856270e+01 
281    1   2.0868109e+01  4.5175175e+01  2.0868109e+01 
282    2   2.2604329e+01  4.6911395e+01  2.0868109e+01 
283    1   2.2604329e+01  4.5175175e+01  2.2604329e+01 
284    2   2.0868109e+01  4.6911395e+01  2.2604329e+01 
285    1   2.0868109e+01  4.5175175e+01  2.4340547e+01 
286    2   2.2604329e+01  4.6911395e+01  2.4340547e+01 
287    1   2.2604329e+01  4.5175175e+01  2.6076766e+01 
288    2   2.0868109e+01  4.6911395e+01  2.6076766e+01 
289    1   2.0868109e+01  4.5175175e+01  2.7812985e+01 
290    2   2.2604329e+01  4.6911395e+01  2.7812985e+01 
291    1   2.2604329e+01  4.5175175e+01  2.9549205e+01 
292    2   2.0868109e+01  4.6911395e+01  2.9549205e+01 
293    1   2.0868109e+01  4.5175175e+01  3.1285424e+01 
294    2   2.2604329e+01  4.6911395e+01  3.1285424e+01 
295    1   2.2604329e+01  4.5175175e+01  3.3021642e+01 
296    2   2.0868109e+01  4.6911395e+01  3.3021642e+01 
297    1   2.0868109e+01  4.5175175e+01  3.4757861e+01 
298    2   2.2604329e+01  4.6911395e+01  3.4757861e+01 
299    1   2.2604329e+01  4.5175175e+01  3.6494080e+01 
300    2   2.0868109e+01  4.6911395e+01  3.6494080e+01 
301    1   2.0868109e+01  4.5175175e+01  3.8230300e+01 
302    2   2.2604329e+01  4.6911395e+01  3.8230300e+01 
303    1   2.2604329e+01  4.5175175e+01  3.9966518e+01 
304    2   2.0868109e+01  4.6911395e+01  3.9966518e+01 
305    1   2.0868109e+01  4.5175175e+01  4.1702737e+01 
306    2   2.2604329e+01  4.6911395e+01  4.1702737e+01 
307    1   2.2604329e+01  4.5175175e+01  4.3438957e+01 
308    2   2.0868109e+01  4.6911395e+01  4.3438957e+01 
309    1   2.0868109e+01  4.5175175e+01  4.5175175e+01 
310    2   2.2604329e+01  4.6911395e+01  4.5175175e+01 
311    1   2.2604329e+01  4.5175175e+01  4.6911395e+01 
312    2   2.0868109e+01  4.6911395e+01  4.6911395e+01 
313    1   2.0868109e+01  4.5175175e+01  4.8647613e+01 
314    2   2.2604329e+01  4.6911395e+01  4.8647613e+01 
315    1   2.2604329e+01  4.5175175e+01  5.0383832e+01 
316    2   2.0868109e+01  4.6911395e+01  5.0383832e+01 
317    1   2.0868109e+01  4.5175175e+01  5.2120051e+01 
318    2   2.2604329e+01  4.6911395e+01  5.2120051e+01 
319    1   2.2604329e+01  4.5175175e+01  5.3856270e+01 
320    2   2.0868109e+01  4.6911395e+01  5.3856270e+01 
321    1   2.0868109e+01  4.8647613e+01  2.0868109e+01 
322    2   2.2604329e+01  5.0383832e+01  2.0868109e+01 
323    1   2.2604329e+01  4.8647613e+01  2.2604329e+01 
324    2   2.0868109e+01  5.0383832e+01  2.2604329e+01 
325    1   2.0868109e+01  4.8647613e+01  2.4340547e+01 
326    2   2.2604329e+01  5.0383832e+01  2.4340547e+01 
327    1   2.2604329e+01  4.8647613e+01  2.6076766e+01 
328    2   2.0868109e+01  5.0383832e+01  2.6076766e+01 
329    1   2.0868109e+01  4.8647613e+01  2.7812985e+01 
330    2   2.2604329e+01  5.0383832e+01  2.7812985e+01 
331    1   2.2604329e+01  4.8647613e+01  2.9549205e+01 
332    2   2.0868109e+01  5.0383832e+01  2.9549205e+01 
333    1   2.0868109e+01  4.8647613e+01  3.1285424e+01 
334    2   2.2604329e+01  5.0383832e+01  3.1285424e+01 
335    1   2.2604329e+01  4.8647613e+01  3.3021642e+01 
336    2   2.0868109e+01  5.0383832e+01  3.3021642e+01 
337    1   2.0868109e+01  4.8647613e+01  3.4757861e+01 
338    2   2.2604329e+01  5.0383832e+01  3.4757861e+01 
339    1   2.2604329e+01  4.8647613e+01  3.6494080e+01 
340    2   2.0868109e+01  5.0383832e+01  3.6494080e+01 
341    1   2.0868109e+01  4.8647613e+01  3.8230300e+01 
342    2   2.2604329e+01  5.0383832e+01  3.8230300e+01 
343    1   2.2604329e+01  4.8647613e+01  3.9966518e+01 
344    2   2.0868109e+01  5.0383832e+01  3.9966518e+01 
345    1   2.0868109e+01  4.8647613e+01  4.1702737e+01 
346    2   2.2604329e+01  5.0383832e+01  4.1702737e+01 
347    1   2.2604329e+01  4.8647613e+01  4.3438957e+01 
348    2   2.0868109e+01  5.0383832e+01  4.3438957e+01 
349    1   2.0868109e+01  4.8647613e+01  4.5175175e+01 
350    2   2.2604329e+01  5.0383832e+01  4.5175175e+01 
351    1   2.2604329e+01  4.8647613e+01  4.6911395e+01 
352    2   2.0868109e+01  5.0383832e+01  4.6911395e+01 
353    1   2.0868109e+01  4.8647613e+01  4.8647613e+01 
354    2   2.2604329e+01  5.0383832e+01  4.8647613e+01 
355    1   2.2604329e+01  4.8647613e+01  5.0383832e+01 
356    2   2.0868109e+01  5.0383832e+01  5.0383832e+01 
357    1   2.0868109e+01  4.8647613e+01  5.2120051e+01 
358    2   2.2604329e+01  5.0383832e+01  5.2120051e+01 
359    1   2.2604329e+01  4.8647613e+01  5.3856270e+01 
360    2   2.0868109e+01  5.0383832e+01  5.3856270e+01 
361    1   2.0868109e+01  5.2120051e+01  2.0868109e+01 
362    2   2.2604329e+01  5.3856270e+01  2.0868109e+01 
363    1   2.2604329e+01  5.2120051e+01  2.2604329e+01 
364    2   2.0868109e+01  5.3856270e+01  2.2604329e+01 
365    1   2.0868109e+01  5.2120051e+01  2.4340547e+01 
366    2   2.2604329e+01  5.3856270e+01  2.4340547e+01 
367    1   2.2604329e+01  5.2120051e+01  2.6076766e+01 
368    2   2.0868109e+01  5.3856270e+01  2.6076766e+01 
369    1   2.0868109e+01  5.2120051e+01  2.7812985e+01 
370    2   2.2604329e+01  5.3856270e+01  2.7812985e+01 
371    1   2.2604329e+01  5.2120051e+01  2.9549205e+01 
372    2   2.0868109e+01  5.3856270e+01  2.9549205e+01 
373    1   2.0868109e+01  5.2120051e+01  3.1285424e+01 
374    2   2.2604329e+01  5.3856270e+01  3.1285424e+01 
375    1   2.2604329e+01  5.2120051e+01  3.3021642e+01 
376    2   2.0868109e+01  5.3856270e+01  3.3021642e+01 
377    1   2.0868109e+01  5.2120051e+01  3.4757861e+01 
378    2   2.2604329e+01  5.3856270e+01  3.4757861e+01 
379    1   2.2604329e+01  5.2120051e+01  3.6494080e+01 
380    2   2.0868109e+01  5.3856270e+01  3.6494080e+01 
381    1   2.0868109e+01  5.2120051e+01  3.8230300e+01 
382    2   2.2604329e+01  5.3856270e+01  3.8230300e+01 
383    1   2.2604329e+01  5.2120051e+01  3.9966518e+01 
384    2   2.0868109e+01  5.3856270e+01  3.9966518e+01 
385    1   2.0868109e+01  5.2120051e+01  4.1702737e+01 
386    2   2.2604329e+01  5.3856270e+01  4.1702737e+01 
387    1   2.2604329e+01  5.2120051e+01  4.3438957e+01 
388    2   2.0868109e+01  5.3856270e+01  4.3438957e+01 
389    1   2.0868109e+01  5.2120051e+01  4.5175175e+01 
390    2   2.2604329e+01  5.3856270e+01  4.5175175e+01 
391    1   2.2604329e+01  5.2120051e+01  4.6911395e+01 
392    2   2.0868109e+01  5.3856270e+01  4.6911395e+01 
393    1   2.0868109e+01  5.2120051e+01  4.8647613e+01 
394    2   2.2604329e+01  5.3856270e+01  4.8647613e+01 
395    1   2.2604329e+01  5.2120051e+01  5.0383832e+01 
396    2   2.0868109e+01  5.3856270e+01  5.0383832e+01 
397    1   2.0868109e+01  5.2120051e+01  5.2120051e+01 
398    2   2.2604329e+01  5.3856270e+01  5.2120051e+01 
399    1   2.2604329e+01  5.2120051e+01  5.3856270e+01 
400    2   2.0868109e+01  5.3856270e+01  5.3856270e+01 
401    1   2.4340547e+01  2.0868109e+01  2.0868109e+01 
402    2   2.6076766e+01  2.2604329e+01  2.0868109e+01 
403    1   2.6076766e+01  2.0868109e+01  2.2604329e+01 
404    2   2.4340547e+01  2.2604329e+01  2.2604329e+01 
405    1   2.4340547e+01  2.0868109e+01  2.4340547e+01 
406    2   2.6076766e+01  2.2604329e+01  2.4340547e+01 
407    1   2.6076766e+01  2.0868109e+01  2.6076766e+01 
408    2   2.4340547e+01  2.2604329e+01  2.6076766e+01 
409    1   2.4340547e+01  2.0868109e+01  2.7812985e+01 
410    2   2.6076766e+01  2.2604329e+01  2.7812985e+01 
411    1   2.6076766e+01  2.0868109e+01  2.9549205e+01 
412    2   2.4340547e+01  2.2604329e+01  2.9549205e+01 
413    1   2.4340547e+01  2.0868109e+01  3.1285424e+01 
414    2   2.6076766e+01  2.2604329e+01  3.1285424e+01 
415    1   2.6076766e+01  2.0868109e+01  3.3021642e+01 
416    2   2.4340547e+01  2.2604329e+01  3.3021642e+01 
417    1   2.4340547e+01  2.0868109e+01  3.4757861e+01 
418    2   2.6076766e+01  2.2604329e+01  3.4757861e+01 
419    1   2.6076766e+01  2.0868109e+01  3.6494080e+01 
420    2   2.4340547e+01  2.2604329e+01  3.6494080e+01 
421    1   2.4340547e+01  2.0868109e+01  3.8230300e+01 
422    2   2.6076766e+01  2.2604329e+01  3.8230300e+01 
423    1   2.6076766e+01  2.0868109e+01  3.9966518e+01 
424    2   2.4340547e+01  2.2604329e+01  3.9966518e+01 
425    1   2.4340547e+01  2.0868109e+01  4.1702737e+01 
426    2   2.6076766e+01  2.2604329e+01  4.1702737e+01 
427    1   2.6076766e+01  2.0868109e+01  4.3438957e+01 
428    2   2.4340547e+01  2.2604329e+01  4.3438957e+01 
429    1   2.4340547e+01  2.0868109e+01  4.5175175e+01 
430    2   2.6076766e+01  2.2604329e+01  4.5175175e+01 
431    1   2.6076766e+01  2.0868109e+01  4.6911395e+01 
432    2   2.4340547e+01  2.2604329e+01  4.6911395e+01 
433    1   2.4340547e+01  2.0868109e+01  4.8647613e+01 
434    2   2.6076766e+01  2.2604329e+01  4.8647613e+01 
435    1   2.6076766e+01  2.0868109e+01  5.0383832e+01 
436    2   2.4340547e+01  2.2604329e+01  5.0383832e+01 
437    1   2.4340547e+01  2.0868109e+01  5.2120051e+01 
438    2   2.6076766e+01  2.2604329e+01  5.2120051e+01 
439    1   2.6076766e+01  2.0868109e+01  5.3856270e+01 
440    2   2.4340547e+01  2.2604329e+01  5.3856270e+01 
441    1   2.4340547e+01  2.4340547e+01  2.0868109e+01 
442    2   2.6076766e+01  2.6076766e+01  2.0868109e+01 
443    1   2.6076766e+01  2.4340547e+01  2.2604329e+01 
444    2   2.4340547e+01  2.6076766e+01  2.2604329e+01 
445    1   2.4340547e+01  2.4340547e+01  2.4340547e+01 
446    2   2.6076766e+01  2.6076766e+01  2.4340547e+01 
447    1   2.6076766e+01  2.4340547e+01  2.6076766e+01 
448    2   2.4340547e+01  2.6076766e+01  2.6076766e+01 
449    1   2.4340547e+01  2.4340547e+01  2.7812985e+01 
450    2   2.6076766e+01  2.6076766e+01  2.7812985e+01 
451    1   2.6076766e+01  2.4340547e+01  2.9549205e+01 
452    2   2.4340547e+01  2.6076766e+01  2.9549205e+01 
453    1   2.4340547e+01  2.4340547e+01  3.1285424e+01 
454    2   2.6076766e+01  2.6076766e+01  3.1285424e+01 
455    1   2.6076766e+01  2.4340547e+01  3.3021642e+01 
456    2   2.4340547e+01  2.6076766e+01  3.3021642e+01 
457    1   2.4340547e+01  2.4340547e+01  3.4757861e+01 
458    2   2.6076766e+01  2.6076766e+01  3.4757861e+01 
459    1   2.6076766e+01  2.4340547e+01  3.6494080e+01 
460    2   2.4340547e+01  2.6076766e+01  3.6494080e+01 
461    1   2.4340547e+01  2.4340547e+01  3.8230300e+01 
462    2   2.6076766e+01  2.6076766e+01  3.8230300e+01 
463    1   2.6076766e+01  2.4340547e+01  3.9966518e+01 
464    2   2.4340547e+01  2.6076766e+01  3.9966518e+01 
465    1   2.4340547e+01  2.4340547e+01  4.1702737e+01 
466    2   2.6076766e+01  2.6076766e+01  4.1702737e+01 
467    1   2.6076766e+01  2.4340547e+01  4.3438957e+01 
468    2   2.4340547e+01  2.6076766e+01  4.3438957e+01 
469    1   2.4340547e+01  2.4340547e+01  4.5175175e+01 
470    2   2.6076766e+01  2.6076766e+01  4.5175175e+01 
471    1   2.6076766e+01  2.4340547e+01  4.6911395e+01 
472    2   2.4340547e+01  2.6076766e+01  4.6911395e+01 
473    1   2.4340547e+01  2.4340547e+01  4.8647613e+01 
474    2   2.6076766e+01  2.6076766e+01  4.8647613e+01 
475    1   2.6076766e+01  2.4340547e+01  5.0383832e+01 
476    2   2.4340547e+01  2.6076766e+01  5.0383832e+01 
477    1   2.4340547e+01  2.4340547e+01  5.2120051e+01 
478    2   2.6076766e+01  2.6076766e+01  5.2120051e+01 
479    1   2.6076766e+01  2.4340547e+01  5.3856270e+01 
480    2   2.4340547e+01  2.6076766e+01  5.3856270e+01 
481    1   2.4340547e+01  2.7812985e+01  2.0868109e+01 
482    2   2.6076766e+01  2.9549205e+01  2.0868109e+01 
483    1   2.6076766e+01  2.7812985e+01  2.2604329e+01 
484    2   2.4340547e+01  2.9549205e+01  2.2604329e+01 
485    1   2.4340547e+01  2.7812985e+01  2.4340547e+01 
486    2   2.6076766e+01  2.9549205e+01  2.4340547e+01 
487    1   2.6076766e+01  2.7812985e+01  2.6076766e+01 
488    2   2.4340547e+01  2.9549205e+01  2.6076766e+01 
489    1   2.4340547e+01  2.7812985e+01  2.7812985e+01 
490    2   2.6076766e+01  2.9549205e+01  2.7812985e+01 
491    1   2.6076766e+01  2.7812985e+01  2.9549205e+01 
492    2   2.4340547e+01  2.9549205e+01  2.9549205e+01 
493    1   2.4340547e+01  2.7812985e+01  3.1285424e+01 
494    2   2.6076766e+01  2.9549205e+01  3.1285424e+01 
495    1   2.6076766e+01  2.7812985e+01  3.3021642e+01 
496    2   2.4340547e+01  2.9549205e+01  3.3021642e+01 
497    1   2.4340547e+01  2.7812985e+01  3.4757861e+01 
498    2   2.6076766e+01  2.9549205e+01  3.4757861e+01 
499    1   2.6076766e+01  2.7812985e+01  3.6494080e+01 
500    2   2.4340547e+01  2.9549205e+01  3.6494080e+01 
501    1   2.4340547e+01  2.7812985e+01  3.8230300e+01 
502    2   2.6076766e+01  2.9549205e+01  3.8230300e+01 
503    1   2.6076766e+01  2.7812985e+01  3.9966518e+01 
504    2   2.4340547e+01  2.9549205e+01  3.9966518e+01 
505    1   2.4340547e+01  2.7812985e+01  4.1702737e+01 
506    2   2.6076766e+01  2.9549205e+01  4.1702737e+01 
507    1   2.6076766e+01  2.7812985e+01  4.3438957e+01 
508    2   2.4340547e+01  2.9549205e+01  4.3438957e+01 
509    1   2.4340547e+01  2.7812985e+01  4.5175175e+01 
510    2   2.6076766e+01  2.9549205e+01  4.5175175e+01 
511    1   2.6076766e+01  2.7812985e+01  4.6911395e+01 
512    2   2.4340547e+01  2.9549205e+01  4.6911395e+01 
513    1   2.4340547e+01  2.7812985e+01  4.8647613e+01 
514    2   2.6076766e+01  2.9549205e+01  4.8647613e+01 
515    1   2.6076766e+01  2.7812985e+01  5.0383832e+01 
516    2   2.4340547e+01  2.9549205e+01  5.0383832e+01 
517    1   2.4340547e+01  2.7812985e+01  5.2120051e+01 
518    2   2.6076766e+01  2.9549205e+01  5.2120051e+01 
519    1   2.6076766e+01  2.7812985e+01  5.3856270e+01 
520    2   2.4340547e+01  2.9549205e+01  5.3856270e+01 
521    1   2.4340547e+01  3.1285424e+01  2.0868109e+01 
522    2   2.6076766e+01  3.3021642e+01  2.0868109e+01 
523    1   2.6076766e+01  3.1285424e+01  2.2604329e+01 
524    2   2.4340547e+01  3.3021642e+01  2.2604329e+01 
525    1   2.4340547e+01  3.1285424e+01  2.4340547e+01 
526    2   2.6076766e+01  3.3021642e+01  2.4340547e+01 
527    1   2.6076766e+01  3.1285424e+01  2.6076766e+01 
528    2   2.4340547e+01  3.3021642e+01  2.6076766e+01 
529    1   2.4340547e+01  3.1285424e+01  2.7812985e+01 
530    2   2.6076766e+01  3.3021642e+01  2.7812985e+01 
531    1   2.6076766e+01  3.1285424e+01  2.9549205e+01 
532    2   2.4340547e+01  3.3021642e+01  2.9549205e+01 
533    1   2.4340547e+01  3.1285424e+01  3.1285424e+01 