# Created Config

2000 atoms
2 atom types

0.0000000   34.2215000  xlo xhi 
0.0000000   34.2215000  ylo yhi 
0.0000000   34.2215000  zlo zhi 

Atoms

1      1   8.5553750e-01  8.5553750e-01  8.5553750e-01 
2      1   2.5666125e+00  2.5666125e+00  8.5553750e-01 
3      1   2.5666125e+00  8.5553750e-01  2.5666125e+00 
4      1   8.5553750e-01  2.5666125e+00  2.5666125e+00 
5      1   8.5553750e-01  8.5553750e-01  4.2776875e+00 
6      1   2.5666125e+00  2.5666125e+00  4.2776875e+00 
7      1   2.5666125e+00  8.5553750e-01  5.9887625e+00 
8      1   8.5553750e-01  2.5666125e+00  5.9887625e+00 
9      1   8.5553750e-01  8.5553750e-01  7.6998375e+00 
10     1   2.5666125e+00  2.5666125e+00  7.6998375e+00 
11     1   2.5666125e+00  8.5553750e-01  9.4109125e+00 
12     1   8.5553750e-01  2.5666125e+00  9.4109125e+00 
13     1   8.5553750e-01  8.5553750e-01  1.1121987e+01 
14     1   2.5666125e+00  2.5666125e+00  1.1121987e+01 
15     1   2.5666125e+00  8.5553750e-01  1.2833063e+01 
16     1   8.5553750e-01  2.5666125e+00  1.2833063e+01 
17     1   8.5553750e-01  8.5553750e-01  1.4544137e+01 
18     1   2.5666125e+00  2.5666125e+00  1.4544137e+01 
19     1   2.5666125e+00  8.5553750e-01  1.6255212e+01 
20     1   8.5553750e-01  2.5666125e+00  1.6255212e+01 
21     1   8.5553750e-01  4.2776875e+00  8.5553750e-01 
22     1   2.5666125e+00  5.9887625e+00  8.5553750e-01 
23     1   2.5666125e+00  4.2776875e+00  2.5666125e+00 
24     1   8.5553750e-01  5.9887625e+00  2.5666125e+00 
25     1   8.5553750e-01  4.2776875e+00  4.2776875e+00 
26     1   2.5666125e+00  5.9887625e+00  4.2776875e+00 
27     1   2.5666125e+00  4.2776875e+00  5.9887625e+00 
28     1   8.5553750e-01  5.9887625e+00  5.9887625e+00 
29     1   8.5553750e-01  4.2776875e+00  7.6998375e+00 
30     1   2.5666125e+00  5.9887625e+00  7.6998375e+00 
31     1   2.5666125e+00  4.2776875e+00  9.4109125e+00 
32     1   8.5553750e-01  5.9887625e+00  9.4109125e+00 
33     1   8.5553750e-01  4.2776875e+00  1.1121987e+01 
34     1   2.5666125e+00  5.9887625e+00  1.1121987e+01 
35     1   2.5666125e+00  4.2776875e+00  1.2833063e+01 
36     1   8.5553750e-01  5.9887625e+00  1.2833063e+01 
37     1   8.5553750e-01  4.2776875e+00  1.4544137e+01 
38     1   2.5666125e+00  5.9887625e+00  1.4544137e+01 
39     1   2.5666125e+00  4.2776875e+00  1.6255212e+01 
40     1   8.5553750e-01  5.9887625e+00  1.6255212e+01 
41     1   8.5553750e-01  7.6998375e+00  8.5553750e-01 
42     1   2.5666125e+00  9.4109125e+00  8.5553750e-01 
43     1   2.5666125e+00  7.6998375e+00  2.5666125e+00 
44     1   8.5553750e-01  9.4109125e+00  2.5666125e+00 
45     1   8.5553750e-01  7.6998375e+00  4.2776875e+00 
46     1   2.5666125e+00  9.4109125e+00  4.2776875e+00 
47     1   2.5666125e+00  7.6998375e+00  5.9887625e+00 
48     1   8.5553750e-01  9.4109125e+00  5.9887625e+00 
49     1   8.5553750e-01  7.6998375e+00  7.6998375e+00 
50     1   2.5666125e+00  9.4109125e+00  7.6998375e+00 
51     1   2.5666125e+00  7.6998375e+00  9.4109125e+00 
52     1   8.5553750e-01  9.4109125e+00  9.4109125e+00 
53     1   8.5553750e-01  7.6998375e+00  1.1121987e+01 
54     1   2.5666125e+00  9.4109125e+00  1.1121987e+01 
55     1   2.5666125e+00  7.6998375e+00  1.2833063e+01 
56     1   8.5553750e-01  9.4109125e+00  1.2833063e+01 
57     1   8.5553750e-01  7.6998375e+00  1.4544137e+01 
58     1   2.5666125e+00  9.4109125e+00  1.4544137e+01 
59     1   2.5666125e+00  7.6998375e+00  1.6255212e+01 
60     1   8.5553750e-01  9.4109125e+00  1.6255212e+01 
61     1   8.5553750e-01  1.1121987e+01  8.5553750e-01 
62     1   2.5666125e+00  1.2833063e+01  8.5553750e-01 
63     1   2.5666125e+00  1.1121987e+01  2.5666125e+00 
64     1   8.5553750e-01  1.2833063e+01  2.5666125e+00 
65     1   8.5553750e-01  1.1121987e+01  4.2776875e+00 
66     1   2.5666125e+00  1.2833063e+01  4.2776875e+00 
67     1   2.5666125e+00  1.1121987e+01  5.9887625e+00 
68     1   8.5553750e-01  1.2833063e+01  5.9887625e+00 
69     1   8.5553750e-01  1.1121987e+01  7.6998375e+00 
70     1   2.5666125e+00  1.2833063e+01  7.6998375e+00 
71     1   2.5666125e+00  1.1121987e+01  9.4109125e+00 
72     1   8.5553750e-01  1.2833063e+01  9.4109125e+00 
73     1   8.5553750e-01  1.1121987e+01  1.1121987e+01 
74     1   2.5666125e+00  1.2833063e+01  1.1121987e+01 
75     1   2.5666125e+00  1.1121987e+01  1.2833063e+01 
76     1   8.5553750e-01  1.2833063e+01  1.2833063e+01 
77     1   8.5553750e-01  1.1121987e+01  1.4544137e+01 
78     1   2.5666125e+00  1.2833063e+01  1.4544137e+01 
79     1   2.5666125e+00  1.1121987e+01  1.6255212e+01 
80     1   8.5553750e-01  1.2833063e+01  1.6255212e+01 
81     1   8.5553750e-01  1.4544137e+01  8.5553750e-01 
82     1   2.5666125e+00  1.6255212e+01  8.5553750e-01 
83     1   2.5666125e+00  1.4544137e+01  2.5666125e+00 
84     1   8.5553750e-01  1.6255212e+01  2.5666125e+00 
85     1   8.5553750e-01  1.4544137e+01  4.2776875e+00 
86     1   2.5666125e+00  1.6255212e+01  4.2776875e+00 
87     1   2.5666125e+00  1.4544137e+01  5.9887625e+00 
88     1   8.5553750e-01  1.6255212e+01  5.9887625e+00 
89     1   8.5553750e-01  1.4544137e+01  7.6998375e+00 
90     1   2.5666125e+00  1.6255212e+01  7.6998375e+00 
91     1   2.5666125e+00  1.4544137e+01  9.4109125e+00 
92     1   8.5553750e-01  1.6255212e+01  9.4109125e+00 
93     1   8.5553750e-01  1.4544137e+01  1.1121987e+01 
94     1   2.5666125e+00  1.6255212e+01  1.1121987e+01 
95     1   2.5666125e+00  1.4544137e+01  1.2833063e+01 
96     1   8.5553750e-01  1.6255212e+01  1.2833063e+01 
97     1   8.5553750e-01  1.4544137e+01  1.4544137e+01 
98     1   2.5666125e+00  1.6255212e+01  1.4544137e+01 
99     1   2.5666125e+00  1.4544137e+01  1.6255212e+01 
100    1   8.5553750e-01  1.6255212e+01  1.6255212e+01 
101    1   8.5553750e-01  1.7966287e+01  8.5553750e-01 
102    1   2.5666125e+00  1.9677362e+01  8.5553750e-01 
103    1   2.5666125e+00  1.7966287e+01  2.5666125e+00 
104    1   8.5553750e-01  1.9677362e+01  2.5666125e+00 
105    1   8.5553750e-01  1.7966287e+01  4.2776875e+00 
106    1   2.5666125e+00  1.9677362e+01  4.2776875e+00 
107    1   2.5666125e+00  1.7966287e+01  5.9887625e+00 
108    1   8.5553750e-01  1.9677362e+01  5.9887625e+00 
109    1   8.5553750e-01  1.7966287e+01  7.6998375e+00 
110    1   2.5666125e+00  1.9677362e+01  7.6998375e+00 
111    1   2.5666125e+00  1.7966287e+01  9.4109125e+00 
112    1   8.5553750e-01  1.9677362e+01  9.4109125e+00 
113    1   8.5553750e-01  1.7966287e+01  1.1121987e+01 
114    1   2.5666125e+00  1.9677362e+01  1.1121987e+01 
115    1   2.5666125e+00  1.7966287e+01  1.2833063e+01 
116    1   8.5553750e-01  1.9677362e+01  1.2833063e+01 
117    1   8.5553750e-01  1.7966287e+01  1.4544137e+01 
118    1   2.5666125e+00  1.9677362e+01  1.4544137e+01 
119    1   2.5666125e+00  1.7966287e+01  1.6255212e+01 
120    1   8.5553750e-01  1.9677362e+01  1.6255212e+01 
121    1   8.5553750e-01  2.1388437e+01  8.5553750e-01 
122    1   2.5666125e+00  2.3099512e+01  8.5553750e-01 
123    1   2.5666125e+00  2.1388437e+01  2.5666125e+00 
124    1   8.5553750e-01  2.3099512e+01  2.5666125e+00 
125    1   8.5553750e-01  2.1388437e+01  4.2776875e+00 
126    1   2.5666125e+00  2.3099512e+01  4.2776875e+00 
127    1   2.5666125e+00  2.1388437e+01  5.9887625e+00 
128    1   8.5553750e-01  2.3099512e+01  5.9887625e+00 
129    1   8.5553750e-01  2.1388437e+01  7.6998375e+00 
130    1   2.5666125e+00  2.3099512e+01  7.6998375e+00 
131    1   2.5666125e+00  2.1388437e+01  9.4109125e+00 
132    1   8.5553750e-01  2.3099512e+01  9.4109125e+00 
133    1   8.5553750e-01  2.1388437e+01  1.1121987e+01 
134    1   2.5666125e+00  2.3099512e+01  1.1121987e+01 
135    1   2.5666125e+00  2.1388437e+01  1.2833063e+01 
136    1   8.5553750e-01  2.3099512e+01  1.2833063e+01 
137    1   8.5553750e-01  2.1388437e+01  1.4544137e+01 
138    1   2.5666125e+00  2.3099512e+01  1.4544137e+01 
139    1   2.5666125e+00  2.1388437e+01  1.6255212e+01 
140    1   8.5553750e-01  2.3099512e+01  1.6255212e+01 
141    1   8.5553750e-01  2.4810587e+01  8.5553750e-01 
142    1   2.5666125e+00  2.6521663e+01  8.5553750e-01 
143    1   2.5666125e+00  2.4810587e+01  2.5666125e+00 
144    1   8.5553750e-01  2.6521663e+01  2.5666125e+00 
145    1   8.5553750e-01  2.4810587e+01  4.2776875e+00 
146    1   2.5666125e+00  2.6521663e+01  4.2776875e+00 
147    1   2.5666125e+00  2.4810587e+01  5.9887625e+00 
148    1   8.5553750e-01  2.6521663e+01  5.9887625e+00 
149    1   8.5553750e-01  2.4810587e+01  7.6998375e+00 
150    1   2.5666125e+00  2.6521663e+01  7.6998375e+00 
151    1   2.5666125e+00  2.4810587e+01  9.4109125e+00 
152    1   8.5553750e-01  2.6521663e+01  9.4109125e+00 
153    1   8.5553750e-01  2.4810587e+01  1.1121987e+01 
154    1   2.5666125e+00  2.6521663e+01  1.1121987e+01 
155    1   2.5666125e+00  2.4810587e+01  1.2833063e+01 
156    1   8.5553750e-01  2.6521663e+01  1.2833063e+01 
157    1   8.5553750e-01  2.4810587e+01  1.4544137e+01 
158    1   2.5666125e+00  2.6521663e+01  1.4544137e+01 
159    1   2.5666125e+00  2.4810587e+01  1.6255212e+01 
160    1   8.5553750e-01  2.6521663e+01  1.6255212e+01 
161    1   8.5553750e-01  2.8232737e+01  8.5553750e-01 
162    1   2.5666125e+00  2.9943812e+01  8.5553750e-01 
163    1   2.5666125e+00  2.8232737e+01  2.5666125e+00 
164    1   8.5553750e-01  2.9943812e+01  2.5666125e+00 
165    1   8.5553750e-01  2.8232737e+01  4.2776875e+00 
166    1   2.5666125e+00  2.9943812e+01  4.2776875e+00 
167    1   2.5666125e+00  2.8232737e+01  5.9887625e+00 
168    1   8.5553750e-01  2.9943812e+01  5.9887625e+00 
169    1   8.5553750e-01  2.8232737e+01  7.6998375e+00 
170    1   2.5666125e+00  2.9943812e+01  7.6998375e+00 
171    1   2.5666125e+00  2.8232737e+01  9.4109125e+00 
172    1   8.5553750e-01  2.9943812e+01  9.4109125e+00 
173    1   8.5553750e-01  2.8232737e+01  1.1121987e+01 
174    1   2.5666125e+00  2.9943812e+01  1.1121987e+01 
175    1   2.5666125e+00  2.8232737e+01  1.2833063e+01 
176    1   8.5553750e-01  2.9943812e+01  1.2833063e+01 
177    1   8.5553750e-01  2.8232737e+01  1.4544137e+01 
178    1   2.5666125e+00  2.9943812e+01  1.4544137e+01 
179    1   2.5666125e+00  2.8232737e+01  1.6255212e+01 
180    1   8.5553750e-01  2.9943812e+01  1.6255212e+01 
181    1   8.5553750e-01  3.1654888e+01  8.5553750e-01 
182    1   2.5666125e+00  3.3365962e+01  8.5553750e-01 
183    1   2.5666125e+00  3.1654888e+01  2.5666125e+00 
184    1   8.5553750e-01  3.3365962e+01  2.5666125e+00 
185    1   8.5553750e-01  3.1654888e+01  4.2776875e+00 
186    1   2.5666125e+00  3.3365962e+01  4.2776875e+00 
187    1   2.5666125e+00  3.1654888e+01  5.9887625e+00 
188    1   8.5553750e-01  3.3365962e+01  5.9887625e+00 
189    1   8.5553750e-01  3.1654888e+01  7.6998375e+00 
190    1   2.5666125e+00  3.3365962e+01  7.6998375e+00 
191    1   2.5666125e+00  3.1654888e+01  9.4109125e+00 
192    1   8.5553750e-01  3.3365962e+01  9.4109125e+00 
193    1   8.5553750e-01  3.1654888e+01  1.1121987e+01 
194    1   2.5666125e+00  3.3365962e+01  1.1121987e+01 
195    1   2.5666125e+00  3.1654888e+01  1.2833063e+01 
196    1   8.5553750e-01  3.3365962e+01  1.2833063e+01 
197    1   8.5553750e-01  3.1654888e+01  1.4544137e+01 
198    1   2.5666125e+00  3.3365962e+01  1.4544137e+01 
199    1   2.5666125e+00  3.1654888e+01  1.6255212e+01 
200    1   8.5553750e-01  3.3365962e+01  1.6255212e+01 
201    1   4.2776875e+00  8.5553750e-01  8.5553750e-01 
202    1   5.9887625e+00  2.5666125e+00  8.5553750e-01 
203    1   5.9887625e+00  8.5553750e-01  2.5666125e+00 
204    1   4.2776875e+00  2.5666125e+00  2.5666125e+00 
205    1   4.2776875e+00  8.5553750e-01  4.2776875e+00 
206    1   5.9887625e+00  2.5666125e+00  4.2776875e+00 
207    1   5.9887625e+00  8.5553750e-01  5.9887625e+00 
208    1   4.2776875e+00  2.5666125e+00  5.9887625e+00 
209    1   4.2776875e+00  8.5553750e-01  7.6998375e+00 
210    1   5.9887625e+00  2.5666125e+00  7.6998375e+00 
211    1   5.9887625e+00  8.5553750e-01  9.4109125e+00 
212    1   4.2776875e+00  2.5666125e+00  9.4109125e+00 
213    1   4.2776875e+00  8.5553750e-01  1.1121987e+01 
214    1   5.9887625e+00  2.5666125e+00  1.1121987e+01 
215    1   5.9887625e+00  8.5553750e-01  1.2833063e+01 
216    1   4.2776875e+00  2.5666125e+00  1.2833063e+01 
217    1   4.2776875e+00  8.5553750e-01  1.4544137e+01 
218    1   5.9887625e+00  2.5666125e+00  1.4544137e+01 
219    1   5.9887625e+00  8.5553750e-01  1.6255212e+01 
220    1   4.2776875e+00  2.5666125e+00  1.6255212e+01 
221    1   4.2776875e+00  4.2776875e+00  8.5553750e-01 
222    1   5.9887625e+00  5.9887625e+00  8.5553750e-01 
223    1   5.9887625e+00  4.2776875e+00  2.5666125e+00 
224    1   4.2776875e+00  5.9887625e+00  2.5666125e+00 
225    1   4.2776875e+00  4.2776875e+00  4.2776875e+00 
226    1   5.9887625e+00  5.9887625e+00  4.2776875e+00 
227    1   5.9887625e+00  4.2776875e+00  5.9887625e+00 
228    1   4.2776875e+00  5.9887625e+00  5.9887625e+00 
229    1   4.2776875e+00  4.2776875e+00  7.6998375e+00 
230    1   5.9887625e+00  5.9887625e+00  7.6998375e+00 
231    1   5.9887625e+00  4.2776875e+00  9.4109125e+00 
232    1   4.2776875e+00  5.9887625e+00  9.4109125e+00 
233    1   4.2776875e+00  4.2776875e+00  1.1121987e+01 
234    1   5.9887625e+00  5.9887625e+00  1.1121987e+01 
235    1   5.9887625e+00  4.2776875e+00  1.2833063e+01 
236    1   4.2776875e+00  5.9887625e+00  1.2833063e+01 
237    1   4.2776875e+00  4.2776875e+00  1.4544137e+01 
238    1   5.9887625e+00  5.9887625e+00  1.4544137e+01 
239    1   5.9887625e+00  4.2776875e+00  1.6255212e+01 
240    1   4.2776875e+00  5.9887625e+00  1.6255212e+01 
241    1   4.2776875e+00  7.6998375e+00  8.5553750e-01 
242    1   5.9887625e+00  9.4109125e+00  8.5553750e-01 
243    1   5.9887625e+00  7.6998375e+00  2.5666125e+00 
244    1   4.2776875e+00  9.4109125e+00  2.5666125e+00 
245    1   4.2776875e+00  7.6998375e+00  4.2776875e+00 
246    1   5.9887625e+00  9.4109125e+00  4.2776875e+00 
247    1   5.9887625e+00  7.6998375e+00  5.9887625e+00 
248    1   4.2776875e+00  9.4109125e+00  5.9887625e+00 
249    1   4.2776875e+00  7.6998375e+00  7.6998375e+00 
250    1   5.9887625e+00  9.4109125e+00  7.6998375e+00 
251    1   5.9887625e+00  7.6998375e+00  9.4109125e+00 
252    1   4.2776875e+00  9.4109125e+00  9.4109125e+00 
253    1   4.2776875e+00  7.6998375e+00  1.1121987e+01 
254    1   5.9887625e+00  9.4109125e+00  1.1121987e+01 
255    1   5.9887625e+00  7.6998375e+00  1.2833063e+01 
256    1   4.2776875e+00  9.4109125e+00  1.2833063e+01 
257    1   4.2776875e+00  7.6998375e+00  1.4544137e+01 
258    1   5.9887625e+00  9.4109125e+00  1.4544137e+01 
259    1   5.9887625e+00  7.6998375e+00  1.6255212e+01 
260    1   4.2776875e+00  9.4109125e+00  1.6255212e+01 
261    1   4.2776875e+00  1.1121987e+01  8.5553750e-01 
262    1   5.9887625e+00  1.2833063e+01  8.5553750e-01 
263    1   5.9887625e+00  1.1121987e+01  2.5666125e+00 
264    1   4.2776875e+00  1.2833063e+01  2.5666125e+00 
265    1   4.2776875e+00  1.1121987e+01  4.2776875e+00 
266    1   5.9887625e+00  1.2833063e+01  4.2776875e+00 
267    1   5.9887625e+00  1.1121987e+01  5.9887625e+00 
268    1   4.2776875e+00  1.2833063e+01  5.9887625e+00 
269    1   4.2776875e+00  1.1121987e+01  7.6998375e+00 
270    1   5.9887625e+00  1.2833063e+01  7.6998375e+00 
271    1   5.9887625e+00  1.1121987e+01  9.4109125e+00 
272    1   4.2776875e+00  1.2833063e+01  9.4109125e+00 
273    1   4.2776875e+00  1.1121987e+01  1.1121987e+01 
274    1   5.9887625e+00  1.2833063e+01  1.1121987e+01 
275    1   5.9887625e+00  1.1121987e+01  1.2833063e+01 
276    1   4.2776875e+00  1.2833063e+01  1.2833063e+01 
277    1   4.2776875e+00  1.1121987e+01  1.4544137e+01 
278    1   5.9887625e+00  1.2833063e+01  1.4544137e+01 
279    1   5.9887625e+00  1.1121987e+01  1.6255212e+01 
280    1   4.2776875e+00  1.2833063e+01  1.6255212e+01 
281    1   4.2776875e+00  1.4544137e+01  8.5553750e-01 
282    1   5.9887625e+00  1.6255212e+01  8.5553750e-01 
283    1   5.9887625e+00  1.4544137e+01  2.5666125e+00 
284    1   4.2776875e+00  1.6255212e+01  2.5666125e+00 
285    1   4.2776875e+00  1.4544137e+01  4.2776875e+00 
286    1   5.9887625e+00  1.6255212e+01  4.2776875e+00 
287    1   5.9887625e+00  1.4544137e+01  5.9887625e+00 
288    1   4.2776875e+00  1.6255212e+01  5.9887625e+00 
289    1   4.2776875e+00  1.4544137e+01  7.6998375e+00 
290    1   5.9887625e+00  1.6255212e+01  7.6998375e+00 
291    1   5.9887625e+00  1.4544137e+01  9.4109125e+00 
292    1   4.2776875e+00  1.6255212e+01  9.4109125e+00 
293    1   4.2776875e+00  1.4544137e+01  1.1121987e+01 
294    1   5.9887625e+00  1.6255212e+01  1.1121987e+01 
295    1   5.9887625e+00  1.4544137e+01  1.2833063e+01 
296    1   4.2776875e+00  1.6255212e+01  1.2833063e+01 
297    1   4.2776875e+00  1.4544137e+01  1.4544137e+01 
298    1   5.9887625e+00  1.6255212e+01  1.4544137e+01 
299    1   5.9887625e+00  1.4544137e+01  1.6255212e+01 
300    1   4.2776875e+00  1.6255212e+01  1.6255212e+01 
301    1   4.2776875e+00  1.7966287e+01  8.5553750e-01 
302    1   5.9887625e+00  1.9677362e+01  8.5553750e-01 
303    1   5.9887625e+00  1.7966287e+01  2.5666125e+00 
304    1   4.2776875e+00  1.9677362e+01  2.5666125e+00 
305    1   4.2776875e+00  1.7966287e+01  4.2776875e+00 
306    1   5.9887625e+00  1.9677362e+01  4.2776875e+00 
307    1   5.9887625e+00  1.7966287e+01  5.9887625e+00 
308    1   4.2776875e+00  1.9677362e+01  5.9887625e+00 
309    1   4.2776875e+00  1.7966287e+01  7.6998375e+00 
310    1   5.9887625e+00  1.9677362e+01  7.6998375e+00 
311    1   5.9887625e+00  1.7966287e+01  9.4109125e+00 
312    1   4.2776875e+00  1.9677362e+01  9.4109125e+00 
313    1   4.2776875e+00  1.7966287e+01  1.1121987e+01 
314    1   5.9887625e+00  1.9677362e+01  1.1121987e+01 
315    1   5.9887625e+00  1.7966287e+01  1.2833063e+01 
316    1   4.2776875e+00  1.9677362e+01  1.2833063e+01 
317    1   4.2776875e+00  1.7966287e+01  1.4544137e+01 
318    1   5.9887625e+00  1.9677362e+01  1.4544137e+01 
319    1   5.9887625e+00  1.7966287e+01  1.6255212e+01 
320    1   4.2776875e+00  1.9677362e+01  1.6255212e+01 
321    1   4.2776875e+00  2.1388437e+01  8.5553750e-01 
322    1   5.9887625e+00  2.3099512e+01  8.5553750e-01 
323    1   5.9887625e+00  2.1388437e+01  2.5666125e+00 
324    1   4.2776875e+00  2.3099512e+01  2.5666125e+00 
325    1   4.2776875e+00  2.1388437e+01  4.2776875e+00 
326    1   5.9887625e+00  2.3099512e+01  4.2776875e+00 
327    1   5.9887625e+00  2.1388437e+01  5.9887625e+00 
328    1   4.2776875e+00  2.3099512e+01  5.9887625e+00 
329    1   4.2776875e+00  2.1388437e+01  7.6998375e+00 
330    1   5.9887625e+00  2.3099512e+01  7.6998375e+00 
331    1   5.9887625e+00  2.1388437e+01  9.4109125e+00 
332    1   4.2776875e+00  2.3099512e+01  9.4109125e+00 
333    1   4.2776875e+00  2.1388437e+01  1.1121987e+01 
334    1   5.9887625e+00  2.3099512e+01  1.1121987e+01 
335    1   5.9887625e+00  2.1388437e+01  1.2833063e+01 
336    1   4.2776875e+00  2.3099512e+01  1.2833063e+01 
337    1   4.2776875e+00  2.1388437e+01  1.4544137e+01 
338    1   5.9887625e+00  2.3099512e+01  1.4544137e+01 
339    1   5.9887625e+00  2.1388437e+01  1.6255212e+01 
340    1   4.2776875e+00  2.3099512e+01  1.6255212e+01 
341    1   4.2776875e+00  2.4810587e+01  8.5553750e-01 
342    1   5.9887625e+00  2.6521663e+01  8.5553750e-01 
343    1   5.9887625e+00  2.4810587e+01  2.5666125e+00 
344    1   4.2776875e+00  2.6521663e+01  2.5666125e+00 
345    1   4.2776875e+00  2.4810587e+01  4.2776875e+00 
346    1   5.9887625e+00  2.6521663e+01  4.2776875e+00 
347    1   5.9887625e+00  2.4810587e+01  5.9887625e+00 
348    1   4.2776875e+00  2.6521663e+01  5.9887625e+00 
349    1   4.2776875e+00  2.4810587e+01  7.6998375e+00 
350    1   5.9887625e+00  2.6521663e+01  7.6998375e+00 
351    1   5.9887625e+00  2.4810587e+01  9.4109125e+00 
352    1   4.2776875e+00  2.6521663e+01  9.4109125e+00 
353    1   4.2776875e+00  2.4810587e+01  1.1121987e+01 
354    1   5.9887625e+00  2.6521663e+01  1.1121987e+01 
355    1   5.9887625e+00  2.4810587e+01  1.2833063e+01 
356    1   4.2776875e+00  2.6521663e+01  1.2833063e+01 
357    1   4.2776875e+00  2.4810587e+01  1.4544137e+01 
358    1   5.9887625e+00  2.6521663e+01  1.4544137e+01 
359    1   5.9887625e+00  2.4810587e+01  1.6255212e+01 
360    1   4.2776875e+00  2.6521663e+01  1.6255212e+01 
361    1   4.2776875e+00  2.8232737e+01  8.5553750e-01 
362    1   5.9887625e+00  2.9943812e+01  8.5553750e-01 
363    1   5.9887625e+00  2.8232737e+01  2.5666125e+00 
364    1   4.2776875e+00  2.9943812e+01  2.5666125e+00 
365    1   4.2776875e+00  2.8232737e+01  4.2776875e+00 
366    1   5.9887625e+00  2.9943812e+01  4.2776875e+00 
367    1   5.9887625e+00  2.8232737e+01  5.9887625e+00 
368    1   4.2776875e+00  2.9943812e+01  5.9887625e+00 
369    1   4.2776875e+00  2.8232737e+01  7.6998375e+00 
370    1   5.9887625e+00  2.9943812e+01  7.6998375e+00 
371    1   5.9887625e+00  2.8232737e+01  9.4109125e+00 
372    1   4.2776875e+00  2.9943812e+01  9.4109125e+00 
373    1   4.2776875e+00  2.8232737e+01  1.1121987e+01 
374    1   5.9887625e+00  2.9943812e+01  1.1121987e+01 
375    1   5.9887625e+00  2.8232737e+01  1.2833063e+01 
376    1   4.2776875e+00  2.9943812e+01  1.2833063e+01 
377    1   4.2776875e+00  2.8232737e+01  1.4544137e+01 
378    1   5.9887625e+00  2.9943812e+01  1.4544137e+01 
379    1   5.9887625e+00  2.8232737e+01  1.6255212e+01 
380    1   4.2776875e+00  2.9943812e+01  1.6255212e+01 
381    1   4.2776875e+00  3.1654888e+01  8.5553750e-01 
382    1   5.9887625e+00  3.3365962e+01  8.5553750e-01 
383    1   5.9887625e+00  3.1654888e+01  2.5666125e+00 
384    1   4.2776875e+00  3.3365962e+01  2.5666125e+00 
385    1   4.2776875e+00  3.1654888e+01  4.2776875e+00 
386    1   5.9887625e+00  3.3365962e+01  4.2776875e+00 
387    1   5.9887625e+00  3.1654888e+01  5.9887625e+00 
388    1   4.2776875e+00  3.3365962e+01  5.9887625e+00 
389    1   4.2776875e+00  3.1654888e+01  7.6998375e+00 
390    1   5.9887625e+00  3.3365962e+01  7.6998375e+00 
391    1   5.9887625e+00  3.1654888e+01  9.4109125e+00 
392    1   4.2776875e+00  3.3365962e+01  9.4109125e+00 
393    1   4.2776875e+00  3.1654888e+01  1.1121987e+01 
394    1   5.9887625e+00  3.3365962e+01  1.1121987e+01 
395    1   5.9887625e+00  3.1654888e+01  1.2833063e+01 
396    1   4.2776875e+00  3.3365962e+01  1.2833063e+01 
397    1   4.2776875e+00  3.1654888e+01  1.4544137e+01 
398    1   5.9887625e+00  3.3365962e+01  1.4544137e+01 
399    1   5.9887625e+00  3.1654888e+01  1.6255212e+01 
400    1   4.2776875e+00  3.3365962e+01  1.6255212e+01 
401    1   7.6998375e+00  8.5553750e-01  8.5553750e-01 
402    1   9.4109125e+00  2.5666125e+00  8.5553750e-01 
403    1   9.4109125e+00  8.5553750e-01  2.5666125e+00 
404    1   7.6998375e+00  2.5666125e+00  2.5666125e+00 
405    1   7.6998375e+00  8.5553750e-01  4.2776875e+00 
406    1   9.4109125e+00  2.5666125e+00  4.2776875e+00 
407    1   9.4109125e+00  8.5553750e-01  5.9887625e+00 
408    1   7.6998375e+00  2.5666125e+00  5.9887625e+00 
409    1   7.6998375e+00  8.5553750e-01  7.6998375e+00 
410    1   9.4109125e+00  2.5666125e+00  7.6998375e+00 
411    1   9.4109125e+00  8.5553750e-01  9.4109125e+00 
412    1   7.6998375e+00  2.5666125e+00  9.4109125e+00 
413    1   7.6998375e+00  8.5553750e-01  1.1121987e+01 
414    1   9.4109125e+00  2.5666125e+00  1.1121987e+01 
415    1   9.4109125e+00  8.5553750e-01  1.2833063e+01 
416    1   7.6998375e+00  2.5666125e+00  1.2833063e+01 
417    1   7.6998375e+00  8.5553750e-01  1.4544137e+01 
418    1   9.4109125e+00  2.5666125e+00  1.4544137e+01 
419    1   9.4109125e+00  8.5553750e-01  1.6255212e+01 
420    1   7.6998375e+00  2.5666125e+00  1.6255212e+01 
421    1   7.6998375e+00  4.2776875e+00  8.5553750e-01 
422    1   9.4109125e+00  5.9887625e+00  8.5553750e-01 
423    1   9.4109125e+00  4.2776875e+00  2.5666125e+00 
424    1   7.6998375e+00  5.9887625e+00  2.5666125e+00 
425    1   7.6998375e+00  4.2776875e+00  4.2776875e+00 
426    1   9.4109125e+00  5.9887625e+00  4.2776875e+00 
427    1   9.4109125e+00  4.2776875e+00  5.9887625e+00 
428    1   7.6998375e+00  5.9887625e+00  5.9887625e+00 
429    1   7.6998375e+00  4.2776875e+00  7.6998375e+00 
430    1   9.4109125e+00  5.9887625e+00  7.6998375e+00 
431    1   9.4109125e+00  4.2776875e+00  9.4109125e+00 
432    1   7.6998375e+00  5.9887625e+00  9.4109125e+00 
433    1   7.6998375e+00  4.2776875e+00  1.1121987e+01 
434    1   9.4109125e+00  5.9887625e+00  1.1121987e+01 
435    1   9.4109125e+00  4.2776875e+00  1.2833063e+01 
436    1   7.6998375e+00  5.9887625e+00  1.2833063e+01 
437    1   7.6998375e+00  4.2776875e+00  1.4544137e+01 
438    1   9.4109125e+00  5.9887625e+00  1.4544137e+01 
439    1   9.4109125e+00  4.2776875e+00  1.6255212e+01 
440    1   7.6998375e+00  5.9887625e+00  1.6255212e+01 
441    1   7.6998375e+00  7.6998375e+00  8.5553750e-01 
442    1   9.4109125e+00  9.4109125e+00  8.5553750e-01 
443    1   9.4109125e+00  7.6998375e+00  2.5666125e+00 
444    1   7.6998375e+00  9.4109125e+00  2.5666125e+00 
445    1   7.6998375e+00  7.6998375e+00  4.2776875e+00 
446    1   9.4109125e+00  9.4109125e+00  4.2776875e+00 
447    1   9.4109125e+00  7.6998375e+00  5.9887625e+00 
448    1   7.6998375e+00  9.4109125e+00  5.9887625e+00 
449    1   7.6998375e+00  7.6998375e+00  7.6998375e+00 
450    1   9.4109125e+00  9.4109125e+00  7.6998375e+00 
451    1   9.4109125e+00  7.6998375e+00  9.4109125e+00 
452    1   7.6998375e+00  9.4109125e+00  9.4109125e+00 
453    1   7.6998375e+00  7.6998375e+00  1.1121987e+01 
454    1   9.4109125e+00  9.4109125e+00  1.1121987e+01 
455    1   9.4109125e+00  7.6998375e+00  1.2833063e+01 
456    1   7.6998375e+00  9.4109125e+00  1.2833063e+01 
457    1   7.6998375e+00  7.6998375e+00  1.4544137e+01 
458    1   9.4109125e+00  9.4109125e+00  1.4544137e+01 
459    1   9.4109125e+00  7.6998375e+00  1.6255212e+01 
460    1   7.6998375e+00  9.4109125e+00  1.6255212e+01 
461    1   7.6998375e+00  1.1121987e+01  8.5553750e-01 
462    1   9.4109125e+00  1.2833063e+01  8.5553750e-01 
463    1   9.4109125e+00  1.1121987e+01  2.5666125e+00 
464    1   7.6998375e+00  1.2833063e+01  2.5666125e+00 
465    1   7.6998375e+00  1.1121987e+01  4.2776875e+00 
466    1   9.4109125e+00  1.2833063e+01  4.2776875e+00 
467    1   9.4109125e+00  1.1121987e+01  5.9887625e+00 
468    1   7.6998375e+00  1.2833063e+01  5.9887625e+00 
469    1   7.6998375e+00  1.1121987e+01  7.6998375e+00 
470    1   9.4109125e+00  1.2833063e+01  7.6998375e+00 
471    1   9.4109125e+00  1.1121987e+01  9.4109125e+00 
472    1   7.6998375e+00  1.2833063e+01  9.4109125e+00 
473    1   7.6998375e+00  1.1121987e+01  1.1121987e+01 
474    1   9.4109125e+00  1.2833063e+01  1.1121987e+01 
475    1   9.4109125e+00  1.1121987e+01  1.2833063e+01 
476    1   7.6998375e+00  1.2833063e+01  1.2833063e+01 
477    1   7.6998375e+00  1.1121987e+01  1.4544137e+01 
478    1   9.4109125e+00  1.2833063e+01  1.4544137e+01 
479    1   9.4109125e+00  1.1121987e+01  1.6255212e+01 
480    1   7.6998375e+00  1.2833063e+01  1.6255212e+01 
481    1   7.6998375e+00  1.4544137e+01  8.5553750e-01 
482    1   9.4109125e+00  1.6255212e+01  8.5553750e-01 
483    1   9.4109125e+00  1.4544137e+01  2.5666125e+00 
484    1   7.6998375e+00  1.6255212e+01  2.5666125e+00 
485    1   7.6998375e+00  1.4544137e+01  4.2776875e+00 
486    1   9.4109125e+00  1.6255212e+01  4.2776875e+00 
487    1   9.4109125e+00  1.4544137e+01  5.9887625e+00 
488    1   7.6998375e+00  1.6255212e+01  5.9887625e+00 
489    1   7.6998375e+00  1.4544137e+01  7.6998375e+00 
490    1   9.4109125e+00  1.6255212e+01  7.6998375e+00 
491    1   9.4109125e+00  1.4544137e+01  9.4109125e+00 
492    1   7.6998375e+00  1.6255212e+01  9.4109125e+00 
493    1   7.6998375e+00  1.4544137e+01  1.1121987e+01 
494    1   9.4109125e+00  1.6255212e+01  1.1121987e+01 
495    1   9.4109125e+00  1.4544137e+01  1.2833063e+01 
496    1   7.6998375e+00  1.6255212e+01  1.2833063e+01 
497    1   7.6998375e+00  1.4544137e+01  1.4544137e+01 
498    1   9.4109125e+00  1.6255212e+01  1.4544137e+01 
499    1   9.4109125e+00  1.4544137e+01  1.6255212e+01 
500    1   7.6998375e+00  1.6255212e+01  1.6255212e+01 
501    1   7.6998375e+00  1.7966287e+01  8.5553750e-01 
502    1   9.4109125e+00  1.9677362e+01  8.5553750e-01 
503    1   9.4109125e+00  1.7966287e+01  2.5666125e+00 
504    1   7.6998375e+00  1.9677362e+01  2.5666125e+00 
505    1   7.6998375e+00  1.7966287e+01  4.2776875e+00 
506    1   9.4109125e+00  1.9677362e+01  4.2776875e+00 
507    1   9.4109125e+00  1.7966287e+01  5.9887625e+00 
508    1   7.6998375e+00  1.9677362e+01  5.9887625e+00 
509    1   7.6998375e+00  1.7966287e+01  7.6998375e+00 
510    1   9.4109125e+00  1.9677362e+01  7.6998375e+00 
511    1   9.4109125e+00  1.7966287e+01  9.4109125e+00 
512    1   7.6998375e+00  1.9677362e+01  9.4109125e+00 
513    1   7.6998375e+00  1.7966287e+01  1.1121987e+01 
514    1   9.4109125e+00  1.9677362e+01  1.1121987e+01 
515    1   9.4109125e+00  1.7966287e+01  1.2833063e+01 
516    1   7.6998375e+00  1.9677362e+01  1.2833063e+01 
517    1   7.6998375e+00  1.7966287e+01  1.4544137e+01 
518    1   9.4109125e+00  1.9677362e+01  1.4544137e+01 
519    1   9.4109125e+00  1.7966287e+01  1.6255212e+01 
520    1   7.6998375e+00  1.9677362e+01  1.6255212e+01 
521    1   7.6998375e+00  2.1388437e+01  8.5553750e-01 
522    1   9.4109125e+00  2.3099512e+01  8.5553750e-01 
523    1   9.4109125e+00  2.1388437e+01  2.5666125e+00 
524    1   7.6998375e+00  2.3099512e+01  2.5666125e+00 
525    1   7.6998375e+00  2.1388437e+01  4.2776875e+00 
526    1   9.4109125e+00  2.3099512e+01  4.2776875e+00 
527    1   9.4109125e+00  2.1388437e+01  5.9887625e+00 
528    1   7.6998375e+00  2.3099512e+01  5.9887625e+00 
529    1   7.6998375e+00  2.1388437e+01  7.6998375e+00 
530    1   9.4109125e+00  2.3099512e+01  7.6998375e+00 
531    1   9.4109125e+00  2.1388437e+01  9.4109125e+00 
532    1   7.6998375e+00  2.3099512e+01  9.4109125e+00 
533    1   7.6998375e+00  2.1388437e+01  1.1121987e+01 