ITEM: TIMESTEP
0
ITEM: NUMBER OF ATOMS
16384
ITEM: BOX BOUNDS pp pp pp
0.0000000000000000e+00 5.4754399999999997e+01
0.0000000000000000e+00 5.4754399999999997e+01
0.0000000000000000e+00 5.4754399999999997e+01
ITEM: ATOMS id type x y z
1 1 0.855537 0.855537 0.855537
2 1 2.56661 2.56661 0.855537
3 1 2.56661 0.855537 2.56661
4 1 0.855537 2.56661 2.56661
5 1 0.855537 0.855537 4.27769
6 1 2.56661 2.56661 4.27769
65 1 0.855537 4.27769 0.855537
67 1 2.56661 4.27769 2.56661
69 1 0.855537 4.27769 4.27769
1025 1 4.27769 0.855537 0.855537
1028 1 4.27769 2.56661 2.56661
1029 1 4.27769 0.855537 4.27769
1089 1 4.27769 4.27769 0.855537
1093 2 4.27769 4.27769 4.27769
1026 1 5.98876 2.56661 0.855537
1027 1 5.98876 0.855537 2.56661
1030 1 5.98876 2.56661 4.27769
1091 1 5.98876 4.27769 2.56661
2049 1 7.69984 0.855537 0.855537
2052 1 7.69984 2.56661 2.56661
2053 2 7.69984 0.855537 4.27769
2113 1 7.69984 4.27769 0.855537
2117 1 7.69984 4.27769 4.27769
2050 1 9.41091 2.56661 0.855537
2051 2 9.41091 0.855537 2.56661
2054 1 9.41091 2.56661 4.27769
2115 1 9.41091 4.27769 2.56661
3073 1 11.122 0.855537 0.855537
3074 1 12.8331 2.56661 0.855537
3075 1 12.8331 0.855537 2.56661
3076 1 11.122 2.56661 2.56661
3077 1 11.122 0.855537 4.27769
3078 1 12.8331 2.56661 4.27769
3137 1 11.122 4.27769 0.855537
3139 1 12.8331 4.27769 2.56661
3141 1 11.122 4.27769 4.27769
4097 2 14.5441 0.855537 0.855537
4098 1 16.2552 2.56661 0.855537
4099 1 16.2552 0.855537 2.56661
4100 1 14.5441 2.56661 2.56661
4101 1 14.5441 0.855537 4.27769
4102 1 16.2552 2.56661 4.27769
4161 1 14.5441 4.27769 0.855537
4163 1 16.2552 4.27769 2.56661
4165 1 14.5441 4.27769 4.27769
5121 1 17.9663 0.855537 0.855537
5124 1 17.9663 2.56661 2.56661
5125 1 17.9663 0.855537 4.27769
5185 1 17.9663 4.27769 0.855537
5189 1 17.9663 4.27769 4.27769
5122 2 19.6774 2.56661 0.855537
5123 1 19.6774 0.855537 2.56661
5126 1 19.6774 2.56661 4.27769
5187 1 19.6774 4.27769 2.56661
6145 2 21.3884 0.855537 0.855537
6148 1 21.3884 2.56661 2.56661
6149 1 21.3884 0.855537 4.27769
6209 1 21.3884 4.27769 0.855537
6213 1 21.3884 4.27769 4.27769
6146 2 23.0995 2.56661 0.855537
6147 1 23.0995 0.855537 2.56661
6150 1 23.0995 2.56661 4.27769
6211 1 23.0995 4.27769 2.56661
7169 1 24.8106 0.855537 0.855537
7170 1 26.5217 2.56661 0.855537
7171 1 26.5217 0.855537 2.56661
7172 1 24.8106 2.56661 2.56661
7173 1 24.8106 0.855537 4.27769
7174 1 26.5217 2.56661 4.27769
7233 1 24.8106 4.27769 0.855537
7235 1 26.5217 4.27769 2.56661
7237 1 24.8106 4.27769 4.27769
8193 1 28.2327 0.855537 0.855537
8194 1 29.9438 2.56661 0.855537
8195 1 29.9438 0.855537 2.56661
8196 1 28.2327 2.56661 2.56661
8197 1 28.2327 0.855537 4.27769
8198 1 29.9438 2.56661 4.27769
8257 1 28.2327 4.27769 0.855537
8259 1 29.9438 4.27769 2.56661
8261 1 28.2327 4.27769 4.27769
9217 1 31.6549 0.855537 0.855537
9220 1 31.6549 2.56661 2.56661
9221 1 31.6549 0.855537 4.27769
9281 1 31.6549 4.27769 0.855537
9285 1 31.6549 4.27769 4.27769
9218 1 33.366 2.56661 0.855537
9219 1 33.366 0.855537 2.56661
9222 1 33.366 2.56661 4.27769
9283 1 33.366 4.27769 2.56661
10241 1 35.077 0.855537 0.855537
10244 1 35.077 2.56661 2.56661
10245 1 35.077 0.855537 4.27769
10305 1 35.077 4.27769 0.855537
10309 1 35.077 4.27769 4.27769
10242 1 36.7881 2.56661 0.855537
10243 2 36.7881 0.855537 2.56661
10246 1 36.7881 2.56661 4.27769
10307 1 36.7881 4.27769 2.56661
11265 1 38.4992 0.855537 0.855537
11266 1 40.2103 2.56661 0.855537
11267 1 40.2103 0.855537 2.56661
11268 1 38.4992 2.56661 2.56661
11269 2 38.4992 0.855537 4.27769
11270 1 40.2103 2.56661 4.27769
11329 1 38.4992 4.27769 0.855537
11331 1 40.2103 4.27769 2.56661
11333 1 38.4992 4.27769 4.27769
12289 1 41.9213 0.855537 0.855537
12290 1 43.6324 2.56661 0.855537
12291 1 43.6324 0.855537 2.56661
12292 1 41.9213 2.56661 2.56661
12293 1 41.9213 0.855537 4.27769
12294 1 43.6324 2.56661 4.27769
12353 2 41.9213 4.27769 0.855537
12355 1 43.6324 4.27769 2.56661
12357 1 41.9213 4.27769 4.27769
13313 1 45.3435 0.855537 0.855537
13316 1 45.3435 2.56661 2.56661
13317 1 45.3435 0.855537 4.27769
13377 1 45.3435 4.27769 0.855537
13381 1 45.3435 4.27769 4.27769
13314 1 47.0546 2.56661 0.855537
13315 2 47.0546 0.855537 2.56661
13318 1 47.0546 2.56661 4.27769
13379 1 47.0546 4.27769 2.56661
14337 1 48.7656 0.855537 0.855537
14340 1 48.7656 2.56661 2.56661
14341 1 48.7656 0.855537 4.27769
14401 1 48.7656 4.27769 0.855537
14405 1 48.7656 4.27769 4.27769
14338 1 50.4767 2.56661 0.855537
14339 1 50.4767 0.855537 2.56661
14342 1 50.4767 2.56661 4.27769
14403 1 50.4767 4.27769 2.56661
15361 1 52.1878 0.855537 0.855537
15362 1 53.8989 2.56661 0.855537
15363 1 53.8989 0.855537 2.56661
15364 1 52.1878 2.56661 2.56661
15365 1 52.1878 0.855537 4.27769
15366 1 53.8989 2.56661 4.27769
15425 1 52.1878 4.27769 0.855537
15427 1 53.8989 4.27769 2.56661
15429 1 52.1878 4.27769 4.27769
66 1 2.56661 5.98876 0.855537
68 1 0.855537 5.98876 2.56661
70 1 2.56661 5.98876 4.27769
129 1 0.855537 7.69984 0.855537
131 1 2.56661 7.69984 2.56661
133 1 0.855537 7.69984 4.27769
1092 1 4.27769 5.98876 2.56661
1153 1 4.27769 7.69984 0.855537
1157 1 4.27769 7.69984 4.27769
1090 1 5.98876 5.98876 0.855537
1094 1 5.98876 5.98876 4.27769
1155 1 5.98876 7.69984 2.56661
2116 1 7.69984 5.98876 2.56661
2177 1 7.69984 7.69984 0.855537
2181 1 7.69984 7.69984 4.27769
2114 1 9.41091 5.98876 0.855537
2118 1 9.41091 5.98876 4.27769
2179 2 9.41091 7.69984 2.56661
3138 1 12.8331 5.98876 0.855537
3140 1 11.122 5.98876 2.56661
3142 1 12.8331 5.98876 4.27769
3201 1 11.122 7.69984 0.855537
3203 1 12.8331 7.69984 2.56661
3205 1 11.122 7.69984 4.27769
4162 1 16.2552 5.98876 0.855537
4164 1 14.5441 5.98876 2.56661
4166 1 16.2552 5.98876 4.27769
4225 1 14.5441 7.69984 0.855537
4227 1 16.2552 7.69984 2.56661
4229 1 14.5441 7.69984 4.27769
5188 1 17.9663 5.98876 2.56661
5249 1 17.9663 7.69984 0.855537
5253 1 17.9663 7.69984 4.27769
5186 1 19.6774 5.98876 0.855537
5190 1 19.6774 5.98876 4.27769
5251 1 19.6774 7.69984 2.56661
6212 1 21.3884 5.98876 2.56661
6273 1 21.3884 7.69984 0.855537
6277 1 21.3884 7.69984 4.27769
6210 1 23.0995 5.98876 0.855537
6214 1 23.0995 5.98876 4.27769
6275 1 23.0995 7.69984 2.56661
7234 1 26.5217 5.98876 0.855537
7236 1 24.8106 5.98876 2.56661
7238 1 26.5217 5.98876 4.27769
7297 1 24.8106 7.69984 0.855537
7299 1 26.5217 7.69984 2.56661
7301 1 24.8106 7.69984 4.27769
8258 1 29.9438 5.98876 0.855537
8260 1 28.2327 5.98876 2.56661
8262 1 29.9438 5.98876 4.27769
8321 1 28.2327 7.69984 0.855537
8323 1 29.9438 7.69984 2.56661
8325 1 28.2327 7.69984 4.27769
9284 1 31.6549 5.98876 2.56661
9345 1 31.6549 7.69984 0.855537
9349 1 31.6549 7.69984 4.27769
9282 1 33.366 5.98876 0.855537
9286 2 33.366 5.98876 4.27769
9347 1 33.366 7.69984 2.56661
10308 1 35.077 5.98876 2.56661
10369 1 35.077 7.69984 0.855537
10373 1 35.077 7.69984 4.27769
10306 1 36.7881 5.98876 0.855537
10310 1 36.7881 5.98876 4.27769
10371 2 36.7881 7.69984 2.56661
11330 1 40.2103 5.98876 0.855537
11332 1 38.4992 5.98876 2.56661
11334 1 40.2103 5.98876 4.27769
11393 1 38.4992 7.69984 0.855537
11395 1 40.2103 7.69984 2.56661
11397 1 38.4992 7.69984 4.27769
12354 1 43.6324 5.98876 0.855537
12356 1 41.9213 5.98876 2.56661
12358 2 43.6324 5.98876 4.27769
12417 2 41.9213 7.69984 0.855537
12419 1 43.6324 7.69984 2.56661
12421 1 41.9213 7.69984 4.27769
13380 1 45.3435 5.98876 2.56661
13441 1 45.3435 7.69984 0.855537
13445 2 45.3435 7.69984 4.27769
13378 1 47.0546 5.98876 0.855537
13382 1 47.0546 5.98876 4.27769
13443 1 47.0546 7.69984 2.56661
14404 1 48.7656 5.98876 2.56661
14465 1 48.7656 7.69984 0.855537
14469 1 48.7656 7.69984 4.27769
14402 1 50.4767 5.98876 0.855537
14406 1 50.4767 5.98876 4.27769
14467 1 50.4767 7.69984 2.56661
15426 1 53.8989 5.98876 0.855537
15428 1 52.1878 5.98876 2.56661
15430 1 53.8989 5.98876 4.27769
15489 1 52.1878 7.69984 0.855537
15491 1 53.8989 7.69984 2.56661
15493 1 52.1878 7.69984 4.27769
130 1 2.56661 9.41091 0.855537
132 2 0.855537 9.41091 2.56661
134 1 2.56661 9.41091 4.27769
193 2 0.855537 11.122 0.855537
194 1 2.56661 12.8331 0.855537
195 1 2.56661 11.122 2.56661
196 1 0.855537 12.8331 2.56661
197 1 0.855537 11.122 4.27769
198 1 2.56661 12.8331 4.27769
1156 1 4.27769 9.41091 2.56661
1217 1 4.27769 11.122 0.855537
1220 1 4.27769 12.8331 2.56661
1221 1 4.27769 11.122 4.27769
1154 1 5.98876 9.41091 0.855537
1158 1 5.98876 9.41091 4.27769
1218 1 5.98876 12.8331 0.855537
1219 1 5.98876 11.122 2.56661
1222 1 5.98876 12.8331 4.27769
2180 1 7.69984 9.41091 2.56661
2241 1 7.69984 11.122 0.855537
2244 1 7.69984 12.8331 2.56661
2245 1 7.69984 11.122 4.27769
2178 1 9.41091 9.41091 0.855537
2182 1 9.41091 9.41091 4.27769
2242 1 9.41091 12.8331 0.855537
2243 2 9.41091 11.122 2.56661
2246 1 9.41091 12.8331 4.27769
3202 1 12.8331 9.41091 0.855537
3204 1 11.122 9.41091 2.56661
3206 1 12.8331 9.41091 4.27769
3265 1 11.122 11.122 0.855537
3266 1 12.8331 12.8331 0.855537
3267 1 12.8331 11.122 2.56661
3268 1 11.122 12.8331 2.56661
3269 1 11.122 11.122 4.27769
3270 1 12.8331 12.8331 4.27769
4226 1 16.2552 9.41091 0.855537
4228 1 14.5441 9.41091 2.56661
4230 1 16.2552 9.41091 4.27769
4289 1 14.5441 11.122 0.855537
4290 1 16.2552 12.8331 0.855537
4291 1 16.2552 11.122 2.56661
4292 1 14.5441 12.8331 2.56661
4293 1 14.5441 11.122 4.27769
4294 1 16.2552 12.8331 4.27769
5252 1 17.9663 9.41091 2.56661
5313 1 17.9663 11.122 0.855537
5316 1 17.9663 12.8331 2.56661
5317 1 17.9663 11.122 4.27769
5250 1 19.6774 9.41091 0.855537
5254 1 19.6774 9.41091 4.27769
5314 1 19.6774 12.8331 0.855537
5315 1 19.6774 11.122 2.56661
5318 1 19.6774 12.8331 4.27769
6276 1 21.3884 9.41091 2.56661
6337 1 21.3884 11.122 0.855537
6340 1 21.3884 12.8331 2.56661
6341 1 21.3884 11.122 4.27769
6274 1 23.0995 9.41091 0.855537
6278 1 23.0995 9.41091 4.27769
6338 1 23.0995 12.8331 0.855537
6339 1 23.0995 11.122 2.56661
6342 1 23.0995 12.8331 4.27769
7298 1 26.5217 9.41091 0.855537
7300 1 24.8106 9.41091 2.56661
7302 1 26.5217 9.41091 4.27769
7361 1 24.8106 11.122 0.855537
7362 1 26.5217 12.8331 0.855537
7363 1 26.5217 11.122 2.56661
7364 1 24.8106 12.8331 2.56661
7365 1 24.8106 11.122 4.27769
7366 1 26.5217 12.8331 4.27769
8322 1 29.9438 9.41091 0.855537
8324 1 28.2327 9.41091 2.56661
8326 1 29.9438 9.41091 4.27769
8385 1 28.2327 11.122 0.855537
8386 1 29.9438 12.8331 0.855537
8387 1 29.9438 11.122 2.56661
8388 1 28.2327 12.8331 2.56661
8389 1 28.2327 11.122 4.27769
8390 1 29.9438 12.8331 4.27769
9348 1 31.6549 9.41091 2.56661
9409 1 31.6549 11.122 0.855537
9412 1 31.6549 12.8331 2.56661
9413 1 31.6549 11.122 4.27769
9346 1 33.366 9.41091 0.855537
9350 1 33.366 9.41091 4.27769
9410 1 33.366 12.8331 0.855537
9411 1 33.366 11.122 2.56661
9414 1 33.366 12.8331 4.27769
10372 1 35.077 9.41091 2.56661
10433 1 35.077 11.122 0.855537
10436 1 35.077 12.8331 2.56661
10437 1 35.077 11.122 4.27769
10370 1 36.7881 9.41091 0.855537
10374 1 36.7881 9.41091 4.27769
10434 1 36.7881 12.8331 0.855537
10435 1 36.7881 11.122 2.56661
10438 1 36.7881 12.8331 4.27769
11394 1 40.2103 9.41091 0.855537
11396 1 38.4992 9.41091 2.56661
11398 1 40.2103 9.41091 4.27769
11457 1 38.4992 11.122 0.855537
11458 1 40.2103 12.8331 0.855537
11459 1 40.2103 11.122 2.56661
11460 1 38.4992 12.8331 2.56661
11461 1 38.4992 11.122 4.27769
11462 1 40.2103 12.8331 4.27769
12418 1 43.6324 9.41091 0.855537
12420 1 41.9213 9.41091 2.56661
12422 1 43.6324 9.41091 4.27769
12481 1 41.9213 11.122 0.855537
12482 1 43.6324 12.8331 0.855537
12483 1 43.6324 11.122 2.56661
12484 1 41.9213 12.8331 2.56661
12485 1 41.9213 11.122 4.27769
12486 1 43.6324 12.8331 4.27769
13444 1 45.3435 9.41091 2.56661
13505 1 45.3435 11.122 0.855537
13508 1 45.3435 12.8331 2.56661
13509 1 45.3435 11.122 4.27769
13442 1 47.0546 9.41091 0.855537
13446 1 47.0546 9.41091 4.27769
13506 1 47.0546 12.8331 0.855537
13507 1 47.0546 11.122 2.56661
13510 1 47.0546 12.8331 4.27769
14468 1 48.7656 9.41091 2.56661
14529 1 48.7656 11.122 0.855537
14532 1 48.7656 12.8331 2.56661
14533 1 48.7656 11.122 4.27769
14466 1 50.4767 9.41091 0.855537
14470 1 50.4767 9.41091 4.27769
14530 1 50.4767 12.8331 0.855537
14531 1 50.4767 11.122 2.56661
14534 1 50.4767 12.8331 4.27769
15490 2 53.8989 9.41091 0.855537
15492 1 52.1878 9.41091 2.56661
15494 1 53.8989 9.41091 4.27769
15553 1 52.1878 11.122 0.855537
15554 1 53.8989 12.8331 0.855537
15555 1 53.8989 11.122 2.56661
15556 1 52.1878 12.8331 2.56661
15557 1 52.1878 11.122 4.27769
15558 1 53.8989 12.8331 4.27769
257 1 0.855537 14.5441 0.855537
258 1 2.56661 16.2552 0.855537
259 1 2.56661 14.5441 2.56661
260 1 0.855537 16.2552 2.56661
261 1 0.855537 14.5441 4.27769
262 1 2.56661 16.2552 4.27769
321 1 0.855537 17.9663 0.855537
323 1 2.56661 17.9663 2.56661
325 1 0.855537 17.9663 4.27769
1281 2 4.27769 14.5441 0.855537
1284 1 4.27769 16.2552 2.56661
1285 1 4.27769 14.5441 4.27769
1345 1 4.27769 17.9663 0.855537
1349 1 4.27769 17.9663 4.27769
1282 1 5.98876 16.2552 0.855537
1283 1 5.98876 14.5441 2.56661
1286 1 5.98876 16.2552 4.27769
1347 1 5.98876 17.9663 2.56661
2305 1 7.69984 14.5441 0.855537
2308 2 7.69984 16.2552 2.56661
2309 1 7.69984 14.5441 4.27769
2369 1 7.69984 17.9663 0.855537
2373 1 7.69984 17.9663 4.27769
2306 1 9.41091 16.2552 0.855537
2307 1 9.41091 14.5441 2.56661
2310 1 9.41091 16.2552 4.27769
2371 1 9.41091 17.9663 2.56661
3329 1 11.122 14.5441 0.855537
3330 1 12.8331 16.2552 0.855537
3331 1 12.8331 14.5441 2.56661
3332 1 11.122 16.2552 2.56661
3333 1 11.122 14.5441 4.27769
3334 1 12.8331 16.2552 4.27769
3393 1 11.122 17.9663 0.855537
3395 1 12.8331 17.9663 2.56661
3397 1 11.122 17.9663 4.27769
4353 1 14.5441 14.5441 0.855537
4354 1 16.2552 16.2552 0.855537
4355 1 16.2552 14.5441 2.56661
4356 1 14.5441 16.2552 2.56661
4357 1 14.5441 14.5441 4.27769
4358 1 16.2552 16.2552 4.27769
4417 1 14.5441 17.9663 0.855537
4419 1 16.2552 17.9663 2.56661
4421 1 14.5441 17.9663 4.27769
5377 2 17.9663 14.5441 0.855537
5380 1 17.9663 16.2552 2.56661
5381 1 17.9663 14.5441 4.27769
5441 1 17.9663 17.9663 0.855537
5445 1 17.9663 17.9663 4.27769
5378 1 19.6774 16.2552 0.855537
5379 1 19.6774 14.5441 2.56661
5382 2 19.6774 16.2552 4.27769
5443 1 19.6774 17.9663 2.56661
6401 1 21.3884 14.5441 0.855537
6404 1 21.3884 16.2552 2.56661
6405 1 21.3884 14.5441 4.27769
6465 1 21.3884 17.9663 0.855537
6469 1 21.3884 17.9663 4.27769
6402 1 23.0995 16.2552 0.855537
6403 1 23.0995 14.5441 2.56661
6406 1 23.0995 16.2552 4.27769
6467 1 23.0995 17.9663 2.56661
7425 1 24.8106 14.5441 0.855537
7426 1 26.5217 16.2552 0.855537
7427 1 26.5217 14.5441 2.56661
7428 1 24.8106 16.2552 2.56661
7429 1 24.8106 14.5441 4.27769
7430 1 26.5217 16.2552 4.27769
7489 1 24.8106 17.9663 0.855537
7491 1 26.5217 17.9663 2.56661
7493 1 24.8106 17.9663 4.27769
8449 1 28.2327 14.5441 0.855537
8450 1 29.9438 16.2552 0.855537
8451 1 29.9438 14.5441 2.56661
8452 1 28.2327 16.2552 2.56661
8453 1 28.2327 14.5441 4.27769
8454 1 29.9438 16.2552 4.27769
8513 1 28.2327 17.9663 0.855537
8515 1 29.9438 17.9663 2.56661
8517 2 28.2327 17.9663 4.27769
9473 1 31.6549 14.5441 0.855537
9476 1 31.6549 16.2552 2.56661
9477 1 31.6549 14.5441 4.27769
9537 1 31.6549 17.9663 0.855537
9541 1 31.6549 17.9663 4.27769
9474 1 33.366 16.2552 0.855537
9475 1 33.366 14.5441 2.56661
9478 1 33.366 16.2552 4.27769
9539 1 33.366 17.9663 2.56661
10497 1 35.077 14.5441 0.855537
10500 1 35.077 16.2552 2.56661
10501 1 35.077 14.5441 4.27769
10561 1 35.077 17.9663 0.855537
10565 1 35.077 17.9663 4.27769
10498 1 36.7881 16.2552 0.855537
10499 1 36.7881 14.5441 2.56661
10502 1 36.7881 16.2552 4.27769
10563 1 36.7881 17.9663 2.56661
11521 1 38.4992 14.5441 0.855537
11522 1 40.2103 16.2552 0.855537
11523 1 40.2103 14.5441 2.56661
11524 1 38.4992 16.2552 2.56661
11525 1 38.4992 14.5441 4.27769
11526 1 40.2103 16.2552 4.27769
11585 1 38.4992 17.9663 0.855537
11587 1 40.2103 17.9663 2.56661
11589 1 38.4992 17.9663 4.27769
12545 1 41.9213 14.5441 0.855537
12546 1 43.6324 16.2552 0.855537
12547 2 43.6324 14.5441 2.56661
12548 1 41.9213 16.2552 2.56661
12549 1 41.9213 14.5441 4.27769
12550 1 43.6324 16.2552 4.27769
12609 1 41.9213 17.9663 0.855537
12611 1 43.6324 17.9663 2.56661
12613 1 41.9213 17.9663 4.27769
13569 1 45.3435 14.5441 0.855537
13572 1 45.3435 16.2552 2.56661
13573 1 45.3435 14.5441 4.27769
13633 1 45.3435 17.9663 0.855537
13637 1 45.3435 17.9663 4.27769
13570 1 47.0546 16.2552 0.855537
13571 1 47.0546 14.5441 2.56661
13574 1 47.0546 16.2552 4.27769
13635 1 47.0546 17.9663 2.56661
14593 1 48.7656 14.5441 0.855537
14596 1 48.7656 16.2552 2.56661
14597 1 48.7656 14.5441 4.27769
14657 1 48.7656 17.9663 0.855537
14661 1 48.7656 17.9663 4.27769
14594 1 50.4767 16.2552 0.855537
14595 1 50.4767 14.5441 2.56661
14598 2 50.4767 16.2552 4.27769
14659 1 50.4767 17.9663 2.56661
15617 1 52.1878 14.5441 0.855537
15618 1 53.8989 16.2552 0.855537
15619 1 53.8989 14.5441 2.56661
15620 1 52.1878 16.2552 2.56661
15621 1 52.1878 14.5441 4.27769
15622 1 53.8989 16.2552 4.27769
15681 1 52.1878 17.9663 0.855537
15683 1 53.8989 17.9663 2.56661
15685 1 52.1878 17.9663 4.27769
322 1 2.56661 19.6774 0.855537
324 1 0.855537 19.6774 2.56661
326 1 2.56661 19.6774 4.27769
385 1 0.855537 21.3884 0.855537
387 1 2.56661 21.3884 2.56661
389 1 0.855537 21.3884 4.27769
1348 1 4.27769 19.6774 2.56661
1409 1 4.27769 21.3884 0.855537
1413 1 4.27769 21.3884 4.27769
1346 2 5.98876 19.6774 0.855537
1350 1 5.98876 19.6774 4.27769
1411 2 5.98876 21.3884 2.56661
2372 1 7.69984 19.6774 2.56661
2433 1 7.69984 21.3884 0.855537
2437 1 7.69984 21.3884 4.27769
2370 1 9.41091 19.6774 0.855537
2374 1 9.41091 19.6774 4.27769
2435 1 9.41091 21.3884 2.56661
3394 1 12.8331 19.6774 0.855537
3396 1 11.122 19.6774 2.56661
3398 1 12.8331 19.6774 4.27769
3457 1 11.122 21.3884 0.855537
3459 1 12.8331 21.3884 2.56661
3461 1 11.122 21.3884 4.27769
4418 2 16.2552 19.6774 0.855537
4420 1 14.5441 19.6774 2.56661
4422 1 16.2552 19.6774 4.27769
4481 1 14.5441 21.3884 0.855537
4483 1 16.2552 21.3884 2.56661
4485 1 14.5441 21.3884 4.27769
5444 1 17.9663 19.6774 2.56661
5505 1 17.9663 21.3884 0.855537
5509 1 17.9663 21.3884 4.27769
5442 1 19.6774 19.6774 0.855537
5446 1 19.6774 19.6774 4.27769
5507 1 19.6774 21.3884 2.56661
6468 1 21.3884 19.6774 2.56661
6529 1 21.3884 21.3884 0.855537
6533 1 21.3884 21.3884 4.27769
6466 1 23.0995 19.6774 0.855537
6470 1 23.0995 19.6774 4.27769
6531 1 23.0995 21.3884 2.56661
7490 1 26.5217 19.6774 0.855537
7492 1 24.8106 19.6774 2.56661
7494 1 26.5217 19.6774 4.27769
7553 1 24.8106 21.3884 0.855537
7555 1 26.5217 21.3884 2.56661
7557 1 24.8106 21.3884 4.27769
8514 2 29.9438 19.6774 0.855537
8516 1 28.2327 19.6774 2.56661
8518 1 29.9438 19.6774 4.27769
8577 1 28.2327 21.3884 0.855537
8579 1 29.9438 21.3884 2.56661
8581 1 28.2327 21.3884 4.27769
9540 1 31.6549 19.6774 2.56661
9601 1 31.6549 21.3884 0.855537
9605 1 31.6549 21.3884 4.27769
9538 1 33.366 19.6774 0.855537
9542 1 33.366 19.6774 4.27769
9603 1 33.366 21.3884 2.56661
10564 1 35.077 19.6774 2.56661
10625 1 35.077 21.3884 0.855537
10629 1 35.077 21.3884 4.27769
10562 1 36.7881 19.6774 0.855537
10566 2 36.7881 19.6774 4.27769
10627 1 36.7881 21.3884 2.56661
11586 1 40.2103 19.6774 0.855537
11588 1 38.4992 19.6774 2.56661
11590 1 40.2103 19.6774 4.27769
11649 1 38.4992 21.3884 0.855537
11651 1 40.2103 21.3884 2.56661
11653 1 38.4992 21.3884 4.27769
12610 1 43.6324 19.6774 0.855537
12612 1 41.9213 19.6774 2.56661
12614 1 43.6324 19.6774 4.27769
12673 1 41.9213 21.3884 0.855537
12675 1 43.6324 21.3884 2.56661
12677 1 41.9213 21.3884 4.27769
13636 1 45.3435 19.6774 2.56661
13697 1 45.3435 21.3884 0.855537
13701 1 45.3435 21.3884 4.27769
13634 1 47.0546 19.6774 0.855537
13638 1 47.0546 19.6774 4.27769
13699 1 47.0546 21.3884 2.56661
14660 1 48.7656 19.6774 2.56661
14721 1 48.7656 21.3884 0.855537
14725 1 48.7656 21.3884 4.27769
14658 1 50.4767 19.6774 0.855537
14662 1 50.4767 19.6774 4.27769
14723 1 50.4767 21.3884 2.56661
15682 1 53.8989 19.6774 0.855537
15684 1 52.1878 19.6774 2.56661
15686 1 53.8989 19.6774 4.27769
15745 1 52.1878 21.3884 0.855537
15747 1 53.8989 21.3884 2.56661
15749 1 52.1878 21.3884 4.27769
386 1 2.56661 23.0995 0.855537
388 1 0.855537 23.0995 2.56661
390 1 2.56661 23.0995 4.27769
449 1 0.855537 24.8106 0.855537
450 1 2.56661 26.5217 0.855537
451 1 2.56661 24.8106 2.56661
452 1 0.855537 26.5217 2.56661
453 1 0.855537 24.8106 4.27769
454 1 2.56661 26.5217 4.27769
1412 1 4.27769 23.0995 2.56661
1473 1 4.27769 24.8106 0.855537
1476 1 4.27769 26.5217 2.56661
1477 1 4.27769 24.8106 4.27769
1410 1 5.98876 23.0995 0.855537
1414 1 5.98876 23.0995 4.27769
1474 1 5.98876 26.5217 0.855537
1475 1 5.98876 24.8106 2.56661
1478 1 5.98876 26.5217 4.27769
2436 1 7.69984 23.0995 2.56661
2497 1 7.69984 24.8106 0.855537
2500 1 7.69984 26.5217 2.56661
2501 1 7.69984 24.8106 4.27769
2434 1 9.41091 23.0995 0.855537
2438 1 9.41091 23.0995 4.27769
2498 1 9.41091 26.5217 0.855537
2499 1 9.41091 24.8106 2.56661
2502 1 9.41091 26.5217 4.27769
3458 1 12.8331 23.0995 0.855537
3460 1 11.122 23.0995 2.56661
3462 1 12.8331 23.0995 4.27769
3521 1 11.122 24.8106 0.855537
3522 1 12.8331 26.5217 0.855537
3523 1 12.8331 24.8106 2.56661
3524 1 11.122 26.5217 2.56661
3525 1 11.122 24.8106 4.27769
3526 1 12.8331 26.5217 4.27769
4482 1 16.2552 23.0995 0.855537
4484 1 14.5441 23.0995 2.56661
4486 1 16.2552 23.0995 4.27769
4545 1 14.5441 24.8106 0.855537
4546 1 16.2552 26.5217 0.855537
4547 1 16.2552 24.8106 2.56661
4548 1 14.5441 26.5217 2.56661
4549 1 14.5441 24.8106 4.27769
4550 1 16.2552 26.5217 4.27769
5508 1 17.9663 23.0995 2.56661
5569 2 17.9663 24.8106 0.855537
5572 1 17.9663 26.5217 2.56661
5573 1 17.9663 24.8106 4.27769
5506 1 19.6774 23.0995 0.855537
5510 1 19.6774 23.0995 4.27769
5570 1 19.6774 26.5217 0.855537
5571 1 19.6774 24.8106 2.56661
5574 1 19.6774 26.5217 4.27769
6532 1 21.3884 23.0995 2.56661
6593 1 21.3884 24.8106 0.855537
6596 1 21.3884 26.5217 2.56661
6597 1 21.3884 24.8106 4.27769
6530 2 23.0995 23.0995 0.855537
6534 1 23.0995 23.0995 4.27769
6594 1 23.0995 26.5217 0.855537
6595 1 23.0995 24.8106 2.56661
6598 1 23.0995 26.5217 4.27769
7554 1 26.5217 23.0995 0.855537
7556 1 24.8106 23.0995 2.56661
7558 1 26.5217 23.0995 4.27769
7617 1 24.8106 24.8106 0.855537
7618 1 26.5217 26.5217 0.855537
7619 1 26.5217 24.8106 2.56661
7620 1 24.8106 26.5217 2.56661
7621 1 24.8106 24.8106 4.27769
7622 1 26.5217 26.5217 4.27769
8578 1 29.9438 23.0995 0.855537
8580 1 28.2327 23.0995 2.56661
8582 2 29.9438 23.0995 4.27769
8641 1 28.2327 24.8106 0.855537
8642 1 29.9438 26.5217 0.855537
8643 1 29.9438 24.8106 2.56661
8644 1 28.2327 26.5217 2.56661
8645 1 28.2327 24.8106 4.27769
8646 1 29.9438 26.5217 4.27769
9604 1 31.6549 23.0995 2.56661
9665 1 31.6549 24.8106 0.855537
9668 1 31.6549 26.5217 2.56661
9669 1 31.6549 24.8106 4.27769
9602 1 33.366 23.0995 0.855537
9606 1 33.366 23.0995 4.27769
9666 1 33.366 26.5217 0.855537
9667 1 33.366 24.8106 2.56661
9670 1 33.366 26.5217 4.27769
10628 2 35.077 23.0995 2.56661
10689 1 35.077 24.8106 0.855537
10692 1 35.077 26.5217 2.56661
10693 1 35.077 24.8106 4.27769
10626 1 36.7881 23.0995 0.855537
10630 1 36.7881 23.0995 4.27769
10690 1 36.7881 26.5217 0.855537
10691 1 36.7881 24.8106 2.56661
10694 1 36.7881 26.5217 4.27769
11650 1 40.2103 23.0995 0.855537
11652 1 38.4992 23.0995 2.56661
11654 1 40.2103 23.0995 4.27769
11713 1 38.4992 24.8106 0.855537
11714 1 40.2103 26.5217 0.855537
11715 1 40.2103 24.8106 2.56661
11716 1 38.4992 26.5217 2.56661
11717 1 38.4992 24.8106 4.27769
11718 1 40.2103 26.5217 4.27769
12674 1 43.6324 23.0995 0.855537
12676 1 41.9213 23.0995 2.56661
12678 1 43.6324 23.0995 4.27769
12737 1 41.9213 24.8106 0.855537
12738 1 43.6324 26.5217 0.855537
12739 1 43.6324 24.8106 2.56661
12740 1 41.9213 26.5217 2.56661
12741 1 41.9213 24.8106 4.27769
12742 1 43.6324 26.5217 4.27769
13700 1 45.3435 23.0995 2.56661
13761 1 45.3435 24.8106 0.855537
13764 1 45.3435 26.5217 2.56661
13765 2 45.3435 24.8106 4.27769
13698 1 47.0546 23.0995 0.855537
13702 1 47.0546 23.0995 4.27769
13762 1 47.0546 26.5217 0.855537
13763 1 47.0546 24.8106 2.56661
13766 1 47.0546 26.5217 4.27769
14724 2 48.7656 23.0995 2.56661
14785 2 48.7656 24.8106 0.855537
14788 1 48.7656 26.5217 2.56661
14789 1 48.7656 24.8106 4.27769
14722 1 50.4767 23.0995 0.855537
14726 1 50.4767 23.0995 4.27769
14786 1 50.4767 26.5217 0.855537
14787 1 50.4767 24.8106 2.56661
14790 2 50.4767 26.5217 4.27769
15746 1 53.8989 23.0995 0.855537
15748 1 52.1878 23.0995 2.56661
15750 1 53.8989 23.0995 4.27769
15809 1 52.1878 24.8106 0.855537
15810 1 53.8989 26.5217 0.855537
15811 1 53.8989 24.8106 2.56661
15812 1 52.1878 26.5217 2.56661
15813 1 52.1878 24.8106 4.27769
15814 2 53.8989 26.5217 4.27769
513 1 0.855537 28.2327 0.855537
514 1 2.56661 29.9438 0.855537
515 1 2.56661 28.2327 2.56661
516 1 0.855537 29.9438 2.56661
517 1 0.855537 28.2327 4.27769
518 1 2.56661 29.9438 4.27769
577 1 0.855537 31.6549 0.855537
579 1 2.56661 31.6549 2.56661
581 1 0.855537 31.6549 4.27769
1537 1 4.27769 28.2327 0.855537
1540 1 4.27769 29.9438 2.56661
1541 1 4.27769 28.2327 4.27769
1601 1 4.27769 31.6549 0.855537
1605 1 4.27769 31.6549 4.27769
1538 1 5.98876 29.9438 0.855537
1539 1 5.98876 28.2327 2.56661
1542 1 5.98876 29.9438 4.27769
1603 1 5.98876 31.6549 2.56661
2561 1 7.69984 28.2327 0.855537
2564 1 7.69984 29.9438 2.56661
2565 1 7.69984 28.2327 4.27769
2625 1 7.69984 31.6549 0.855537
2629 1 7.69984 31.6549 4.27769
2562 1 9.41091 29.9438 0.855537
2563 1 9.41091 28.2327 2.56661
2566 1 9.41091 29.9438 4.27769
2627 1 9.41091 31.6549 2.56661
3585 1 11.122 28.2327 0.855537
3586 1 12.8331 29.9438 0.855537
3587 1 12.8331 28.2327 2.56661
3588 1 11.122 29.9438 2.56661
3589 1 11.122 28.2327 4.27769
3590 1 12.8331 29.9438 4.27769
3649 1 11.122 31.6549 0.855537
3651 1 12.8331 31.6549 2.56661
3653 1 11.122 31.6549 4.27769
4609 1 14.5441 28.2327 0.855537
4610 1 16.2552 29.9438 0.855537
4611 1 16.2552 28.2327 2.56661
4612 1 14.5441 29.9438 2.56661
4613 1 14.5441 28.2327 4.27769
4614 1 16.2552 29.9438 4.27769
4673 1 14.5441 31.6549 0.855537
4675 1 16.2552 31.6549 2.56661
4677 1 14.5441 31.6549 4.27769
5633 1 17.9663 28.2327 0.855537
5636 1 17.9663 29.9438 2.56661
5637 1 17.9663 28.2327 4.27769
5697 1 17.9663 31.6549 0.855537
5701 1 17.9663 31.6549 4.27769
5634 1 19.6774 29.9438 0.855537
5635 2 19.6774 28.2327 2.56661
5638 1 19.6774 29.9438 4.27769
5699 1 19.6774 31.6549 2.56661
6657 1 21.3884 28.2327 0.855537
6660 2 21.3884 29.9438 2.56661
6661 2 21.3884 28.2327 4.27769
6721 1 21.3884 31.6549 0.855537
6725 1 21.3884 31.6549 4.27769
6658 1 23.0995 29.9438 0.855537
6659 1 23.0995 28.2327 2.56661
6662 1 23.0995 29.9438 4.27769
6723 1 23.0995 31.6549 2.56661
7681 1 24.8106 28.2327 0.855537
7682 1 26.5217 29.9438 0.855537
7683 1 26.5217 28.2327 2.56661
7684 1 24.8106 29.9438 2.56661
7685 1 24.8106 28.2327 4.27769
7686 1 26.5217 29.9438 4.27769
7745 1 24.8106 31.6549 0.855537
7747 1 26.5217 31.6549 2.56661
7749 1 24.8106 31.6549 4.27769
8705 1 28.2327 28.2327 0.855537
8706 1 29.9438 29.9438 0.855537
8707 1 29.9438 28.2327 2.56661
8708 1 28.2327 29.9438 2.56661
8709 1 28.2327 28.2327 4.27769
8710 1 29.9438 29.9438 4.27769
8769 1 28.2327 31.6549 0.855537
8771 2 29.9438 31.6549 2.56661
8773 1 28.2327 31.6549 4.27769
9729 1 31.6549 28.2327 0.855537
9732 2 31.6549 29.9438 2.56661
9733 2 31.6549 28.2327 4.27769
9793 1 31.6549 31.6549 0.855537
9797 2 31.6549 31.6549 4.27769
9730 1 33.366 29.9438 0.855537
9731 1 33.366 28.2327 2.56661
9734 1 33.366 29.9438 4.27769
9795 1 33.366 31.6549 2.56661
10753 1 35.077 28.2327 0.855537
10756 1 35.077 29.9438 2.56661
10757 1 35.077 28.2327 4.27769
10817 1 35.077 31.6549 0.855537
10821 1 35.077 31.6549 4.27769
10754 1 36.7881 29.9438 0.855537
10755 1 36.7881 28.2327 2.56661
10758 1 36.7881 29.9438 4.27769
10819 1 36.7881 31.6549 2.56661
11777 1 38.4992 28.2327 0.855537
11778 1 40.2103 29.9438 0.855537
11779 1 40.2103 28.2327 2.56661
11780 1 38.4992 29.9438 2.56661
11781 1 38.4992 28.2327 4.27769
11782 1 40.2103 29.9438 4.27769
11841 1 38.4992 31.6549 0.855537
11843 1 40.2103 31.6549 2.56661
11845 1 38.4992 31.6549 4.27769
12801 1 41.9213 28.2327 0.855537
12802 1 43.6324 29.9438 0.855537
12803 1 43.6324 28.2327 2.56661
12804 1 41.9213 29.9438 2.56661
12805 1 41.9213 28.2327 4.27769
12806 1 43.6324 29.9438 4.27769
12865 1 41.9213 31.6549 0.855537
12867 1 43.6324 31.6549 2.56661
12869 1 41.9213 31.6549 4.27769
13825 1 45.3435 28.2327 0.855537
13828 1 45.3435 29.9438 2.56661
13829 1 45.3435 28.2327 4.27769
13889 1 45.3435 31.6549 0.855537
13893 1 45.3435 31.6549 4.27769
13826 1 47.0546 29.9438 0.855537
13827 1 47.0546 28.2327 2.56661
13830 1 47.0546 29.9438 4.27769
13891 1 47.0546 31.6549 2.56661
14849 1 48.7656 28.2327 0.855537
14852 1 48.7656 29.9438 2.56661
14853 1 48.7656 28.2327 4.27769
14913 2 48.7656 31.6549 0.855537
14917 1 48.7656 31.6549 4.27769
14850 1 50.4767 29.9438 0.855537
14851 1 50.4767 28.2327 2.56661
14854 1 50.4767 29.9438 4.27769
14915 1 50.4767 31.6549 2.56661
15873 1 52.1878 28.2327 0.855537
15874 1 53.8989 29.9438 0.855537
15875 1 53.8989 28.2327 2.56661
15876 1 52.1878 29.9438 2.56661
15877 1 52.1878 28.2327 4.27769
15878 1 53.8989 29.9438 4.27769
15937 1 52.1878 31.6549 0.855537
15939 1 53.8989 31.6549 2.56661
15941 1 52.1878 31.6549 4.27769
578 1 2.56661 33.366 0.855537
580 1 0.855537 33.366 2.56661
582 1 2.56661 33.366 4.27769
641 1 0.855537 35.077 0.855537
643 1 2.56661 35.077 2.56661
645 1 0.855537 35.077 4.27769
1604 1 4.27769 33.366 2.56661
1665 1 4.27769 35.077 0.855537
1669 1 4.27769 35.077 4.27769
1602 1 5.98876 33.366 0.855537
1606 1 5.98876 33.366 4.27769
1667 1 5.98876 35.077 2.56661
2628 2 7.69984 33.366 2.56661
2689 1 7.69984 35.077 0.855537
2693 2 7.69984 35.077 4.27769
2626 1 9.41091 33.366 0.855537
2630 1 9.41091 33.366 4.27769
2691 1 9.41091 35.077 2.56661
3650 1 12.8331 33.366 0.855537
3652 1 11.122 33.366 2.56661
3654 1 12.8331 33.366 4.27769
3713 1 11.122 35.077 0.855537
3715 1 12.8331 35.077 2.56661
3717 1 11.122 35.077 4.27769
4674 1 16.2552 33.366 0.855537
4676 1 14.5441 33.366 2.56661
4678 1 16.2552 33.366 4.27769
4737 1 14.5441 35.077 0.855537
4739 1 16.2552 35.077 2.56661
4741 1 14.5441 35.077 4.27769
5700 1 17.9663 33.366 2.56661
5761 1 17.9663 35.077 0.855537